ITEM: TIMESTEP
0
ITEM: NUMBER OF ATOMS
0
ITEM: BOX BOUNDS
0	114.8
0	114.8
0	114.8
ITEM: ATOMS id type x y z defect iddef
ITEM: TIMESTEP
9.07279e-05
ITEM: NUMBER OF ATOMS
0
ITEM: BOX BOUNDS
0	114.8
0	114.8
0	114.8
ITEM: ATOMS id type x y z defect iddef
ITEM: TIMESTEP
0.000153911
ITEM: NUMBER OF ATOMS
0
ITEM: BOX BOUNDS
0	114.8
0	114.8
0	114.8
ITEM: ATOMS id type x y z defect iddef
ITEM: TIMESTEP
0.000229748
ITEM: NUMBER OF ATOMS
4
ITEM: BOX BOUNDS
0	114.8
0	114.8
0	114.8
ITEM: ATOMS id type x y z defect iddef
1	12	90.986	56.3435	63.0811	1	1003
2	37	93.2363	49.8923	72.3065	1	1009
3	37	86.9152	67.3441	94.4301	1	1021
4	12	89.5978	78.2327	96.8862	1	1015
ITEM: TIMESTEP
0.000313674
ITEM: NUMBER OF ATOMS
14
ITEM: BOX BOUNDS
0	114.8
0	114.8
0	114.8
ITEM: ATOMS id type x y z defect iddef
1	37	5.93558	104.777	56.1451	1	961
2	12	8.8662	107.392	66.9322	1	955
3	37	54.0524	29.3117	27.7296	1	985
4	12	56.2794	56.5467	12.351	1	973
5	37	48.1773	50.1992	17.436	1	991
6	12	63.5335	30.2522	34.1339	1	967
7	12	60.4987	46.0434	8.8165	1	979
8	37	71.8058	45.795	6.84703	1	997
9	12	99.7092	42.1563	57.8099	1	943
10	12	90.986	56.3435	63.0811	1	1003
11	37	93.2363	49.8923	72.3065	1	1009
12	37	86.9152	67.3441	94.4301	1	1021
13	12	89.5978	78.2327	96.8862	1	1015
14	37	108.495	37.6943	50.3517	1	937
ITEM: TIMESTEP
0.000405937
ITEM: NUMBER OF ATOMS
18
ITEM: BOX BOUNDS
0	114.8
0	114.8
0	114.8
ITEM: ATOMS id type x y z defect iddef
1	37	5.93558	104.777	56.1451	1	961
2	12	8.8662	107.392	66.9322	1	955
3	37	42.5361	61.2467	23.5032	1	949
4	12	36.9974	69.1859	29.6741	1	931
5	37	54.0524	29.3117	27.7296	1	985
6	12	56.2794	56.5467	12.351	1	973
7	37	48.1773	50.1992	17.436	1	991
8	12	46.8087	104.196	11.47	1	919
9	37	55.0003	109.889	17.151	1	925
10	12	63.5335	30.2522	34.1339	1	967
11	12	60.4987	46.0434	8.8165	1	979
12	37	71.8058	45.795	6.84703	1	997
13	12	99.7092	42.1563	57.8099	1	943
14	12	90.986	56.3435	63.0811	1	1003
15	37	93.2363	49.8923	72.3065	1	1009
16	37	86.9152	67.3441	94.4301	1	1021
17	12	89.5978	78.2327	96.8862	1	1015
18	37	108.495	37.6943	50.3517	1	937
ITEM: TIMESTEP
0.000538567
ITEM: NUMBER OF ATOMS
22
ITEM: BOX BOUNDS
0	114.8
0	114.8
0	114.8
ITEM: ATOMS id type x y z defect iddef
1	37	10.1112	51.9328	6.00199	1	901
2	37	5.93558	104.777	56.1451	1	961
3	12	8.8662	107.392	66.9322	1	955
4	12	20.9448	52.2371	2.21636	1	895
5	37	42.5361	61.2467	23.5032	1	949
6	12	36.9974	69.1859	29.6741	1	931
7	37	54.0524	29.3117	27.7296	1	985
8	12	56.2794	56.5467	12.351	1	973
9	37	48.1773	50.1992	17.436	1	991
10	12	46.8087	104.196	11.47	1	919
11	37	55.0003	109.889	17.151	1	925
12	12	63.5335	30.2522	34.1339	1	967
13	12	60.4987	46.0434	8.8165	1	979
14	37	71.8058	45.795	6.84703	1	997
15	12	99.7092	42.1563	57.8099	1	943
16	12	90.986	56.3435	63.0811	1	1003
17	37	93.2363	49.8923	72.3065	1	1009
18	37	86.9152	67.3441	94.4301	1	1021
19	12	99.241	83.3915	83.5613	1	907
20	12	89.5978	78.2327	96.8862	1	1015
21	37	108.495	37.6943	50.3517	1	937
22	37	109.549	84.262	78.5846	1	913
ITEM: TIMESTEP
0.000653012
ITEM: NUMBER OF ATOMS
22
ITEM: BOX BOUNDS
0	114.8
0	114.8
0	114.8
ITEM: ATOMS id type x y z defect iddef
1	37	10.1112	51.9328	6.00199	1	901
2	37	5.93558	104.777	56.1451	1	961
3	12	8.8662	107.392	66.9322	1	955
4	12	20.9448	52.2371	2.21636	1	895
5	37	42.5361	61.2467	23.5032	1	949
6	12	36.9974	69.1859	29.6741	1	931
7	12	56.2794	56.5467	12.351	1	973
8	37	48.1773	50.1992	17.436	1	991
9	12	46.8087	104.196	11.47	1	919
10	37	55.0003	109.889	17.151	1	925
11	12	60.4987	46.0434	8.8165	1	979
12	37	71.8058	45.795	6.84703	1	997
13	37	74.419	55.2113	43.2808	1	985
14	12	74.2027	64.8303	37.0182	1	967
15	12	99.7092	42.1563	57.8099	1	943
16	12	90.986	56.3435	63.0811	1	1003
17	37	93.2363	49.8923	72.3065	1	1009
18	37	86.9152	67.3441	94.4301	1	1021
19	12	99.241	83.3915	83.5613	1	907
20	12	89.5978	78.2327	96.8862	1	1015
21	37	108.495	37.6943	50.3517	1	937
22	37	109.549	84.262	78.5846	1	913
ITEM: TIMESTEP
0.000827784
ITEM: NUMBER OF ATOMS
30
ITEM: BOX BOUNDS
0	114.8
0	114.8
0	114.8
ITEM: ATOMS id type x y z defect iddef
1	37	10.1112	51.9328	6.00199	1	901
2	37	5.0336	68.6716	29.8817	1	871
3	12	9.45124	79.1416	28.2531	1	853
4	12	7.24823	79.447	24.5337	1	859
5	37	10.8203	89.2679	29.2856	1	877
6	37	5.93558	104.777	56.1451	1	961
7	12	8.8662	107.392	66.9322	1	955
8	12	20.9448	52.2371	2.21636	1	895
9	12	26.3658	82.5974	35.1745	1	847
10	37	27.9608	86.5831	45.8216	1	865
11	37	42.5361	61.2467	23.5032	1	949
12	12	36.9974	69.1859	29.6741	1	931
13	12	56.2794	56.5467	12.351	1	973
14	37	48.1773	50.1992	17.436	1	991
15	12	46.8087	104.196	11.47	1	919
16	37	55.0003	109.889	17.151	1	925
17	12	60.4987	46.0434	8.8165	1	979
18	37	71.8058	45.795	6.84703	1	997
19	37	74.419	55.2113	43.2808	1	985
20	12	74.2027	64.8303	37.0182	1	967
21	12	99.7092	42.1563	57.8099	1	943
22	12	90.986	56.3435	63.0811	1	1003
23	37	93.2363	49.8923	72.3065	1	1009
24	37	86.9152	67.3441	94.4301	1	1021
25	12	99.241	83.3915	83.5613	1	907
26	12	89.5978	78.2327	96.8862	1	1015
27	37	108.495	37.6943	50.3517	1	937
28	37	104.677	82.1741	32.6261	1	889
29	37	109.549	84.262	78.5846	1	913
30	12	110.099	87.7689	24.1951	1	883
ITEM: TIMESTEP
0.000908402
ITEM: NUMBER OF ATOMS
48
ITEM: BOX BOUNDS
0	114.8
0	114.8
0	114.8
ITEM: ATOMS id type x y z defect iddef
1	12	4.32589	32.4833	41.1457	1	769
2	12	4.34309	32.4833	44.0159	1	763
3	37	10.1112	51.9328	6.00199	1	901
4	37	0.831934	46.135	47.008	1	937
5	37	1.57387	50.4635	60.5209	1	775
6	37	5.0336	68.6716	29.8817	1	871
7	12	9.45124	79.1416	28.2531	1	853
8	12	7.24823	79.447	24.5337	1	859
9	37	10.8203	89.2679	29.2856	1	877
10	37	5.93558	104.777	56.1451	1	961
11	12	8.8662	107.392	66.9322	1	955
12	12	20.9448	52.2371	2.21636	1	895
13	12	26.3658	82.5974	35.1745	1	847
14	37	27.9608	86.5831	45.8216	1	865
15	37	42.5361	61.2467	23.5032	1	949
16	12	36.9974	69.1859	29.6741	1	931
17	12	46.5338	29.2921	44.9128	1	835
18	12	56.2794	56.5467	12.351	1	973
19	37	48.1773	50.1992	17.436	1	991
20	12	46.8087	104.196	11.47	1	919
21	37	55.0003	109.889	17.151	1	925
22	37	58.45	39.8238	41.8289	1	841
23	37	68.7536	39.0207	47.8273	1	817
24	12	60.4987	46.0434	8.8165	1	979
25	12	72.2258	28.3677	45.3278	1	811
26	37	71.8058	45.795	6.84703	1	997
27	37	74.419	55.2113	43.2808	1	985
28	12	74.2027	64.8303	37.0182	1	967
29	37	96.0072	28.5429	66.9378	1	751
30	37	92.6719	20.3814	62.8349	1	787
31	12	97.1175	37.3482	33.7053	1	739
32	37	99.6167	30.34	42.4477	1	745
33	12	99.7092	42.1563	57.8099	1	943
34	12	86.9129	31.7383	73.1727	1	793
35	37	90.7527	44.2998	45.9642	1	757
36	12	90.986	56.3435	63.0811	1	1003
37	37	93.2363	49.8923	72.3065	1	1009
38	37	86.9152	67.3441	94.4301	1	1021
39	12	99.241	83.3915	83.5613	1	907
40	12	89.5978	78.2327	96.8862	1	1015
41	12	109.925	15.5583	50.0675	1	799
42	37	111.768	23.0946	58.529	1	805
43	12	109.077	33.9543	39.7707	1	781
44	37	104.677	82.1741	32.6261	1	889
45	37	109.549	84.262	78.5846	1	913
46	12	112.322	79.2849	106.118	1	823
47	37	106.24	85.8264	113.33	1	829
48	12	110.099	87.7689	24.1951	1	883
ITEM: TIMESTEP
0.00105429
ITEM: NUMBER OF ATOMS
50
ITEM: BOX BOUNDS
0	114.8
0	114.8
0	114.8
ITEM: ATOMS id type x y z defect iddef
1	12	4.32589	32.4833	41.1457	1	769
2	12	4.34309	32.4833	44.0159	1	763
3	37	10.1112	51.9328	6.00199	1	901
4	37	0.831934	46.135	47.008	1	937
5	37	1.57387	50.4635	60.5209	1	775
6	37	5.0336	68.6716	29.8817	1	871
7	12	9.45124	79.1416	28.2531	1	853
8	12	7.24823	79.447	24.5337	1	859
9	37	10.8203	89.2679	29.2856	1	877
10	37	5.93558	104.777	56.1451	1	961
11	12	8.8662	107.392	66.9322	1	955
12	12	20.9448	52.2371	2.21636	1	895
13	12	26.3658	82.5974	35.1745	1	847
14	37	27.9608	86.5831	45.8216	1	865
15	37	42.5361	61.2467	23.5032	1	949
16	12	36.9974	69.1859	29.6741	1	931
17	12	46.5338	29.2921	44.9128	1	835
18	12	56.2794	56.5467	12.351	1	973
19	37	48.1773	50.1992	17.436	1	991
20	12	46.8087	104.196	11.47	1	919
21	37	55.0003	109.889	17.151	1	925
22	37	58.45	39.8238	41.8289	1	841
23	37	68.7536	39.0207	47.8273	1	817
24	12	60.4987	46.0434	8.8165	1	979
25	12	72.2258	28.3677	45.3278	1	811
26	37	71.8058	45.795	6.84703	1	997
27	37	74.419	55.2113	43.2808	1	985
28	12	74.2027	64.8303	37.0182	1	967
29	37	96.0072	28.5429	66.9378	1	751
30	37	92.6719	20.3814	62.8349	1	787
31	12	97.1175	37.3482	33.7053	1	739
32	37	99.6167	30.34	42.4477	1	745
33	12	99.7092	42.1563	57.8099	1	943
34	12	86.9129	31.7383	73.1727	1	793
35	37	90.7527	44.2998	45.9642	1	757
36	12	90.986	56.3435	63.0811	1	1003
37	37	93.2363	49.8923	72.3065	1	1009
38	37	86.9152	67.3441	94.4301	1	1021
39	12	99.241	83.3915	83.5613	1	907
40	12	89.5978	78.2327	96.8862	1	1015
41	12	109.925	15.5583	50.0675	1	799
42	37	111.768	23.0946	58.529	1	805
43	12	109.077	33.9543	39.7707	1	781
44	12	105.042	46.5327	47.446	1	727
45	37	110.132	56.6163	45.3937	1	733
46	37	104.677	82.1741	32.6261	1	889
47	37	109.549	84.262	78.5846	1	913
48	12	112.322	79.2849	106.118	1	823
49	37	106.24	85.8264	113.33	1	829
50	12	110.099	87.7689	24.1951	1	883
ITEM: TIMESTEP
0.0011614
ITEM: NUMBER OF ATOMS
52
ITEM: BOX BOUNDS
0	114.8
0	114.8
0	114.8
ITEM: ATOMS id type x y z defect iddef
1	12	4.32589	32.4833	41.1457	1	769
2	12	4.34309	32.4833	44.0159	1	763
3	37	10.1112	51.9328	6.00199	1	901
4	37	0.831934	46.135	47.008	1	937
5	37	1.57387	50.4635	60.5209	1	775
6	37	5.0336	68.6716	29.8817	1	871
7	12	9.45124	79.1416	28.2531	1	853
8	12	7.24823	79.447	24.5337	1	859
9	37	10.8203	89.2679	29.2856	1	877
10	37	5.93558	104.777	56.1451	1	961
11	12	8.8662	107.392	66.9322	1	955
12	12	20.9448	52.2371	2.21636	1	895
13	12	26.3658	82.5974	35.1745	1	847
14	37	27.9608	86.5831	45.8216	1	865
15	37	42.5361	61.2467	23.5032	1	949
16	12	36.9974	69.1859	29.6741	1	931
17	12	46.5338	29.2921	44.9128	1	835
18	12	56.2794	56.5467	12.351	1	973
19	37	48.1773	50.1992	17.436	1	991
20	12	46.8087	104.196	11.47	1	919
21	37	55.0003	109.889	17.151	1	925
22	37	58.45	39.8238	41.8289	1	841
23	37	68.7536	39.0207	47.8273	1	817
24	12	60.4987	46.0434	8.8165	1	979
25	12	72.2258	28.3677	45.3278	1	811
26	37	71.8058	45.795	6.84703	1	997
27	37	74.419	55.2113	43.2808	1	985
28	12	74.2027	64.8303	37.0182	1	967
29	37	96.0072	28.5429	66.9378	1	751
30	37	92.6719	20.3814	62.8349	1	787
31	12	97.1175	37.3482	33.7053	1	739
32	37	99.6167	30.34	42.4477	1	745
33	12	99.7092	42.1563	57.8099	1	943
34	12	86.9129	31.7383	73.1727	1	793
35	37	90.7527	44.2998	45.9642	1	757
36	12	90.986	56.3435	63.0811	1	1003
37	37	97.0238	43.2318	73.3888	1	721
38	37	93.2363	49.8923	72.3065	1	1009
39	37	86.9152	67.3441	94.4301	1	1021
40	12	99.241	83.3915	83.5613	1	907
41	12	89.5978	78.2327	96.8862	1	1015
42	12	109.925	15.5583	50.0675	1	799
43	37	111.768	23.0946	58.529	1	805
44	12	109.077	33.9543	39.7707	1	781
45	12	103.446	33.9495	71.2941	1	715
46	12	105.042	46.5327	47.446	1	727
47	37	110.132	56.6163	45.3937	1	733
48	37	104.677	82.1741	32.6261	1	889
49	37	109.549	84.262	78.5846	1	913
50	12	112.322	79.2849	106.118	1	823
51	37	106.24	85.8264	113.33	1	829
52	12	110.099	87.7689	24.1951	1	883
ITEM: TIMESTEP
0.00214126
ITEM: NUMBER OF ATOMS
104
ITEM: BOX BOUNDS
0	114.8
0	114.8
0	114.8
ITEM: ATOMS id type x y z defect iddef
1	37	8.49689	5.90692	54.6815	1	471
2	12	0.443629	5.60006	62.8572	1	423
3	12	13.9857	35.7391	41.8503	1	553
4	12	1.36444	37.9335	51.754	1	441
5	37	4.10539	29.0428	57.4202	1	357
6	37	12.2407	36.0428	61.0161	1	763
7	37	10.1112	51.9328	6.00199	1	901
8	37	0.831934	46.135	47.008	1	937
9	37	1.57387	50.4635	60.5209	1	775
10	37	6.81011	45.1229	100.377	1	631
11	12	5.16516	54.3493	107.007	1	601
12	37	5.0336	68.6716	29.8817	1	871
13	12	9.45124	79.1416	28.2531	1	853
14	12	7.24823	79.447	24.5337	1	859
15	37	10.8203	89.2679	29.2856	1	877
16	37	5.93558	104.777	56.1451	1	961
17	37	0.529953	107.213	61.711	1	697
18	12	8.8662	107.392	66.9322	1	955
19	413	19.6119	32.1432	43.6855	3	817
20	413	17.8039	32.1432	45.4935	3	817
21	37	21.3594	41.3092	51.4207	1	769
22	12	23.402	33.4757	60.2243	1	547
23	12	20.9448	52.2371	2.21636	1	895
24	12	26.3658	82.5974	35.1745	1	847
25	37	27.9608	86.5831	45.8216	1	865
26	37	36.4634	50.7191	58.1885	1	483
27	37	42.5361	61.2467	23.5032	1	949
28	12	36.9974	69.1859	29.6741	1	931
29	12	39.1414	61.0023	53.844	1	435
30	12	55.5127	2.5007	97.7615	1	375
31	12	46.5338	29.2921	44.9128	1	835
32	12	56.2794	56.5467	12.351	1	973
33	37	48.1773	50.1992	17.436	1	991
34	37	50.6264	47.6437	52.5001	1	565
35	12	48.1862	70.8554	90.8728	1	583
36	12	57.029	86.3521	96.2523	1	381
37	37	53.1276	96.7211	93.2438	1	399
38	12	46.8087	104.196	11.47	1	919
39	37	55.0003	109.889	17.151	1	925
40	37	48.9795	114.172	88.8552	1	393
41	37	68.7744	0.859104	102.3	1	405
42	37	58.45	39.8238	41.8289	1	841
43	12	57.9736	40.4021	57.5368	1	559
44	12	60.4987	46.0434	8.8165	1	979
45	37	65.538	55.3222	106.73	1	673
46	12	69.1856	59.4614	96.0375	1	619
47	37	59.4633	63.4146	107.43	1	589
48	12	71.4647	64.7389	103.903	1	655
49	12	76.3445	22.6394	61.7192	1	411
50	37	85.2719	36.1524	0.0285688	1	637
51	37	76.3172	30.2486	53.1233	1	459
52	37	71.8058	45.795	6.84703	1	997
53	37	74.419	55.2113	43.2808	1	985
54	12	76.4469	57.591	20.1607	1	1009
55	37	78.0094	68.8785	16.3642	1	685
56	37	73.3714	60.4974	85.3981	1	967
57	12	73.5341	68.0042	107.307	1	661
58	37	82.3138	62.1688	111.852	1	679
59	12	78.5924	80.3242	17.0321	1	667
60	12	77.0264	79.3459	72.4276	1	613
61	37	72.7429	84.2554	81.8795	1	643
62	37	77.7101	89.2416	3.29836	1	625
63	12	73.3147	89.299	107.493	1	595
64	37	80.5574	103.513	94.9419	1	387
65	12	89.1875	4.53846	103.321	1	363
66	12	88.4267	22.5429	38.0666	1	447
67	37	93.0573	19.3438	48.0723	1	799
68	37	96.0072	28.5429	66.9378	1	751
69	37	92.6719	20.3814	62.8349	1	787
70	12	93.0609	30.2158	6.01851	1	607
71	12	97.1175	37.3482	33.7053	1	739
72	37	99.6167	30.34	42.4477	1	745
73	37	87.2148	41.1714	54.5484	1	577
74	12	91.205	39.718	65.214	1	571
75	12	99.7092	42.1563	57.8099	1	943
76	12	86.9129	31.7383	73.1727	1	793
77	37	90.7527	44.2998	45.9642	1	757
78	12	90.986	56.3435	63.0811	1	1003
79	37	99.0807	56.3598	77.9269	1	649
80	37	97.0238	43.2318	73.3888	1	721
81	12	94.4534	69.767	69.9253	1	429
82	37	86.9152	67.3441	94.4301	1	1021
83	12	99.241	83.3915	83.5613	1	907
84	12	89.5978	78.2327	96.8862	1	1015
85	12	90.3178	100.341	100.086	1	369
86	12	107.209	10.5992	60.7131	1	489
87	37	110.106	14.3752	50.2661	1	351
88	12	113.186	24.3009	69.172	1	417
89	37	111.768	23.0946	58.529	1	805
90	37	105.599	22.5936	77.617	1	465
91	12	109.077	33.9543	39.7707	1	781
92	12	103.561	29.36	54.5723	1	453
93	12	103.446	33.9495	71.2941	1	715
94	12	105.042	46.5327	47.446	1	727
95	37	110.132	56.6163	45.3937	1	733
96	37	102.209	71.6807	50.3816	1	709
97	37	104.677	82.1741	32.6261	1	889
98	12	110.711	76.0967	44.0572	1	703
99	37	103.633	72.248	76.3575	1	477
100	37	109.549	84.262	78.5846	1	913
101	12	112.322	79.2849	106.118	1	823
102	37	106.24	85.8264	113.33	1	829
103	12	110.099	87.7689	24.1951	1	883
104	12	106.148	107.084	54.8213	1	691
ITEM: TIMESTEP
0.00300932
ITEM: NUMBER OF ATOMS
140
ITEM: BOX BOUNDS
0	114.8
0	114.8
0	114.8
ITEM: ATOMS id type x y z defect iddef
1	37	8.49689	5.90692	54.6815	1	471
2	12	0.443629	5.60006	62.8572	1	423
3	37	4.34205	28.322	4.05876	1	261
4	37	2.8762	28.894	0.461393	1	249
5	12	13.9857	35.7391	41.8503	1	553
6	12	1.36444	37.9335	51.754	1	441
7	37	12.2407	36.0428	61.0161	1	763
8	37	10.1112	51.9328	6.00199	1	901
9	37	0.831934	46.135	47.008	1	937
10	37	1.57387	50.4635	60.5209	1	775
11	37	6.81011	45.1229	100.377	1	631
12	12	5.16516	54.3493	107.007	1	601
13	37	6.70146	57.7473	9.2562	1	345
14	12	8.09976	62.8089	0.681118	1	895
15	37	5.0336	68.6716	29.8817	1	871
16	12	9.97139	59.7776	113.241	1	339
17	12	9.45124	79.1416	28.2531	1	853
18	12	7.24823	79.447	24.5337	1	859
19	37	10.8203	89.2679	29.2856	1	877
20	37	5.93558	104.777	56.1451	1	961
21	37	0.529953	107.213	61.711	1	697
22	12	8.8662	107.392	66.9322	1	955
23	413	19.6119	32.1432	43.6855	3	817
24	413	17.8039	32.1432	45.4935	3	817
25	37	21.3594	41.3092	51.4207	1	769
26	12	23.402	33.4757	60.2243	1	547
27	12	20.3649	34.6982	84.2228	1	129
28	37	26.6663	36.265	73.4876	1	153
29	12	26.4264	47.0472	69.5535	1	147
30	12	26.3658	82.5974	35.1745	1	847
31	37	26.7968	85.0292	113.916	1	201
32	37	27.9608	86.5831	45.8216	1	865
33	12	25.5642	92.292	105.111	1	195
34	37	20.6689	110.812	95.5327	1	165
35	37	29.9717	32.1952	78.4577	1	141
36	37	36.4634	50.7191	58.1885	1	483
37	37	31.3832	43.96	82.3698	1	135
38	12	33.5287	52.9923	89.123	1	123
39	37	42.5361	61.2467	23.5032	1	949
40	12	36.9974	69.1859	29.6741	1	931
41	12	39.1414	61.0023	53.844	1	435
42	37	41.9181	75.2432	109.372	1	213
43	12	29.1729	106.024	105.795	1	159
44	12	55.5127	2.5007	97.7615	1	375
45	12	46.5338	29.2921	44.9128	1	835
46	12	56.2794	56.5467	12.351	1	973
47	37	48.1773	50.1992	17.436	1	991
48	37	50.6264	47.6437	52.5001	1	565
49	12	45.968	67.7247	2.24411	1	207
50	12	48.1862	70.8554	90.8728	1	583
51	12	55.8162	76.3814	105.745	1	177
52	37	49.096	79.5258	114.505	1	189
53	12	57.029	86.3521	96.2523	1	381
54	37	53.1276	96.7211	93.2438	1	399
55	12	46.8087	104.196	11.47	1	919
56	37	55.0003	109.889	17.151	1	925
57	37	48.9795	114.172	88.8552	1	393
58	37	68.7744	0.859104	102.3	1	405
59	37	58.45	39.8238	41.8289	1	841
60	12	57.9736	40.4021	57.5368	1	559
61	12	60.4987	46.0434	8.8165	1	979
62	37	65.538	55.3222	106.73	1	673
63	37	70.7617	67.4681	28.7321	1	327
64	12	69.1856	59.4614	96.0375	1	619
65	37	59.4633	63.4146	107.43	1	589
66	12	71.4647	64.7389	103.903	1	655
67	12	71.0632	85.9333	109.371	1	171
68	37	63.0373	92.4006	114.426	1	183
69	12	76.3445	22.6394	61.7192	1	411
70	37	85.2719	36.1524	0.0285688	1	637
71	37	76.3172	30.2486	53.1233	1	459
72	37	71.8058	45.795	6.84703	1	997
73	37	74.419	55.2113	43.2808	1	985
74	12	81.2363	54.9905	62.6609	1	357
75	37	85.84	55.383	73.17	1	453
76	37	78.0094	68.8785	16.3642	1	685
77	12	81.7895	64.3139	29.2114	1	285
78	37	77.5635	65.0755	64.5297	1	225
79	37	73.3714	60.4974	85.3981	1	967
80	12	73.5341	68.0042	107.307	1	661
81	37	82.3138	62.1688	111.852	1	679
82	12	78.5924	80.3242	17.0321	1	667
83	12	77.0264	79.3459	72.4276	1	613
84	37	72.7429	84.2554	81.8795	1	643
85	37	77.7101	89.2416	3.29836	1	625
86	12	73.3147	89.299	107.493	1	595
87	37	80.5574	103.513	94.9419	1	387
88	12	89.1875	4.53846	103.321	1	363
89	12	88.4267	22.5429	38.0666	1	447
90	37	93.0573	19.3438	48.0723	1	799
91	37	96.0072	28.5429	66.9378	1	751
92	37	92.6719	20.3814	62.8349	1	787
93	12	100.238	35.0468	8.8919	1	607
94	12	97.1175	37.3482	33.7053	1	739
95	37	99.6167	30.34	42.4477	1	745
96	37	87.2148	41.1714	54.5484	1	577
97	12	99.7092	42.1563	57.8099	1	943
98	12	86.9129	31.7383	73.1727	1	793
99	37	90.7527	44.2998	45.9642	1	757
100	12	90.986	56.3435	63.0811	1	1003
101	37	99.0807	56.3598	77.9269	1	649
102	12	88.6825	63.9066	9.79391	1	297
103	12	88.1505	62.4606	60.9425	1	219
104	12	94.4534	69.767	69.9253	1	429
105	37	86.9152	67.3441	94.4301	1	1021
106	37	99.4891	75.3855	55.0714	1	333
107	12	99.241	83.3915	83.5613	1	907
108	12	89.5978	78.2327	96.8862	1	1015
109	12	90.3178	100.341	100.086	1	369
110	12	107.209	10.5992	60.7131	1	489
111	12	108.758	21.6876	1.02588	1	237
112	37	110.106	14.3752	50.2661	1	351
113	12	113.186	24.3009	69.172	1	417
114	37	111.768	23.0946	58.529	1	805
115	37	105.599	22.5936	77.617	1	465
116	12	111.09	22.7112	112.902	1	255
117	12	113.58	33.4624	11.0587	1	231
118	12	109.077	33.9543	39.7707	1	781
119	37	112.448	36.0031	114.721	1	243
120	12	105.042	46.5327	47.446	1	727
121	37	110.132	56.6163	45.3937	1	733
122	37	101.435	56.1949	64.5547	1	1009
123	12	107.932	51.8777	76.5808	1	721
124	37	102.209	71.6807	50.3816	1	709
125	12	110.057	63.0323	61.2838	1	291
126	37	104.677	82.1741	32.6261	1	889
127	37	107.372	79.915	55.6885	1	715
128	12	110.711	76.0967	44.0572	1	703
129	37	103.633	72.248	76.3575	1	477
130	12	112.322	79.2849	106.118	1	823
131	37	106.24	85.8264	113.33	1	829
132	12	111.665	99.5165	4.95209	1	267
133	37	105.507	100.251	14.6128	1	309
134	12	110.099	87.7689	24.1951	1	883
135	12	107.458	88.1985	47.7408	1	571
136	12	101.545	89.0279	45.2301	1	273
137	37	109.434	89.8309	68.0779	1	303
138	12	101.755	86.7288	59.7418	1	279
139	37	112.212	90.5018	62.608	1	321
140	12	106.148	107.084	54.8213	1	691
ITEM: TIMESTEP
0.00409808
ITEM: NUMBER OF ATOMS
170
ITEM: BOX BOUNDS
0	114.8
0	114.8
0	114.8
ITEM: ATOMS id type x y z defect iddef
1	12	8.78824	7.24763	16.3454	1	2039
2	37	2.74033	11.7778	50.2766	1	471
3	37	4.34205	28.322	4.05876	1	261
4	37	2.68817	16.8768	14.9819	1	9
5	37	2.8762	28.894	0.461393	1	249
6	12	13.9857	35.7391	41.8503	1	553
7	12	1.36444	37.9335	51.754	1	441
8	37	12.2407	36.0428	61.0161	1	763
9	37	10.1112	51.9328	6.00199	1	901
10	37	0.831934	46.135	47.008	1	937
11	37	1.57387	50.4635	60.5209	1	775
12	37	6.81011	45.1229	100.377	1	631
13	12	5.16516	54.3493	107.007	1	601
14	12	8.09976	62.8089	0.681118	1	895
15	37	5.0336	68.6716	29.8817	1	871
16	12	0.232571	67.884	56.5329	1	2027
17	37	5.48709	68.3529	46.3368	1	2033
18	12	9.97139	59.7776	113.241	1	339
19	12	9.45124	79.1416	28.2531	1	853
20	12	7.24823	79.447	24.5337	1	859
21	12	0.259442	78.7067	48.3299	1	2015
22	37	10.6511	73.8381	48.6466	1	2021
23	37	10.8203	89.2679	29.2856	1	877
24	37	5.93558	104.777	56.1451	1	961
25	37	0.529953	107.213	61.711	1	697
26	12	8.8662	107.392	66.9322	1	955
27	413	19.6119	32.1432	43.6855	3	817
28	413	17.8039	32.1432	45.4935	3	817
29	37	21.3594	41.3092	51.4207	1	769
30	12	23.402	33.4757	60.2243	1	547
31	12	20.3649	34.6982	84.2228	1	129
32	37	26.6663	36.265	73.4876	1	153
33	12	26.4264	47.0472	69.5535	1	147
34	37	15.3175	57.9309	15.2404	1	997
35	12	26.3658	82.5974	35.1745	1	847
36	37	26.7968	85.0292	113.916	1	201
37	37	27.9608	86.5831	45.8216	1	865
38	12	25.5642	92.292	105.111	1	195
39	37	20.6689	110.812	95.5327	1	165
40	37	29.9717	32.1952	78.4577	1	141
41	37	36.4634	50.7191	58.1885	1	483
42	37	31.3832	43.96	82.3698	1	135
43	12	33.5287	52.9923	89.123	1	123
44	37	42.5361	61.2467	23.5032	1	949
45	12	36.9974	69.1859	29.6741	1	931
46	12	39.1414	61.0023	53.844	1	435
47	37	41.9181	75.2432	109.372	1	213
48	12	41.1545	114.726	98.7425	1	351
49	12	29.1729	106.024	105.795	1	159
50	12	51.0437	3.37829	79.0416	1	45
51	37	51.6442	1.05337	88.4095	1	57
52	37	46.9427	10.5291	87.0314	1	63
53	37	44.2482	3.6135	88.3201	1	345
54	12	55.5127	2.5007	97.7615	1	375
55	12	47.256	10.9806	106.523	1	51
56	37	55.6629	18.7659	105.813	1	423
57	12	46.5338	29.2921	44.9128	1	835
58	12	56.2794	56.5467	12.351	1	973
59	37	48.1773	50.1992	17.436	1	991
60	37	50.6264	47.6437	52.5001	1	565
61	12	45.968	67.7247	2.24411	1	207
62	12	48.1862	70.8554	90.8728	1	583
63	12	55.8162	76.3814	105.745	1	177
64	37	49.096	79.5258	114.505	1	189
65	12	57.029	86.3521	96.2523	1	381
66	37	53.1276	96.7211	93.2438	1	399
67	12	46.8087	104.196	11.47	1	919
68	37	55.0003	109.889	17.151	1	925
69	12	55.1253	111.075	78.5686	1	39
70	37	48.9795	114.172	88.8552	1	393
71	37	68.7744	0.859104	102.3	1	405
72	12	59.6957	28.4795	4.69782	1	75
73	12	69.8809	25.2332	21.8479	1	985
74	37	63.928	27.638	108.86	1	105
75	37	58.45	39.8238	41.8289	1	841
76	37	67.3673	33.8504	53.8299	1	33
77	12	57.9736	40.4021	57.5368	1	559
78	37	70.3023	46.9178	13.2062	1	93
79	12	60.4987	46.0434	8.8165	1	979
80	37	65.538	55.3222	106.73	1	673
81	37	70.7617	67.4681	28.7321	1	327
82	37	67.4796	58.5969	47.3809	1	117
83	12	69.1856	59.4614	96.0375	1	619
84	37	59.4633	63.4146	107.43	1	589
85	12	71.4647	64.7389	103.903	1	655
86	12	71.0632	85.9333	109.371	1	171
87	37	63.0373	92.4006	114.426	1	183
88	37	73.3767	22.162	11.3533	1	111
89	12	84.3335	25.5591	34.9066	1	69
90	12	76.3445	22.6394	61.7192	1	411
91	37	85.2719	36.1524	0.0285688	1	637
92	37	78.9284	33.22	41.5311	1	99
93	12	74.6607	39.229	47.6391	1	27
94	37	76.3172	30.2486	53.1233	1	459
95	12	81.2363	54.9905	62.6609	1	357
96	37	85.84	55.383	73.17	1	453
97	12	80.9765	51.4826	97.5018	1	87
98	37	85.2795	43.2798	104.283	1	315
99	37	78.0094	68.8785	16.3642	1	685
100	12	81.7895	64.3139	29.2114	1	285
101	37	77.5635	65.0755	64.5297	1	225
102	37	73.3714	60.4974	85.3981	1	967
103	12	73.5341	68.0042	107.307	1	661
104	37	82.3138	62.1688	111.852	1	679
105	12	78.5924	80.3242	17.0321	1	667
106	12	85.9747	82.3411	63.3344	1	2003
107	12	77.0264	79.3459	72.4276	1	613
108	37	72.7429	84.2554	81.8795	1	643
109	37	77.7101	89.2416	3.29836	1	625
110	12	73.3147	89.299	107.493	1	595
111	37	80.5574	103.513	94.9419	1	387
112	12	89.1875	4.53846	103.321	1	363
113	12	90.5848	22.8289	17.9158	1	81
114	12	88.4267	22.5429	38.0666	1	447
115	37	93.0573	19.3438	48.0723	1	799
116	37	96.0072	28.5429	66.9378	1	751
117	37	92.6719	20.3814	62.8349	1	787
118	37	90.0225	33.6152	14.0261	1	913
119	12	100.238	35.0468	8.8919	1	607
120	12	97.1175	37.3482	33.7053	1	739
121	37	99.6167	30.34	42.4477	1	745
122	37	87.2148	41.1714	54.5484	1	577
123	12	99.7092	42.1563	57.8099	1	943
124	12	86.9129	31.7383	73.1727	1	793
125	37	90.7527	44.2998	45.9642	1	757
126	12	90.986	56.3435	63.0811	1	1003
127	37	99.0807	56.3598	77.9269	1	649
128	12	88.6825	63.9066	9.79391	1	297
129	12	88.1505	62.4606	60.9425	1	219
130	12	94.4534	69.767	69.9253	1	429
131	37	86.9152	67.3441	94.4301	1	1021
132	37	94.2897	80.9757	55.5379	1	2009
133	37	99.4891	75.3855	55.0714	1	333
134	12	99.241	83.3915	83.5613	1	907
135	12	89.5978	78.2327	96.8862	1	1015
136	12	90.3178	100.341	100.086	1	369
137	12	107.209	10.5992	60.7131	1	489
138	12	108.758	21.6876	1.02588	1	237
139	12	113.186	24.3009	69.172	1	417
140	37	111.768	23.0946	58.529	1	805
141	37	105.599	22.5936	77.617	1	465
142	12	111.09	22.7112	112.902	1	255
143	12	113.58	33.4624	11.0587	1	231
144	12	109.077	33.9543	39.7707	1	781
145	37	112.448	36.0031	114.721	1	243
146	12	101.602	54.5359	10.3994	1	2045
147	12	105.582	54.088	11.6693	1	15
148	12	105.042	46.5327	47.446	1	727
149	37	110.132	56.6163	45.3937	1	733
150	37	101.435	56.1949	64.5547	1	1009
151	12	107.932	51.8777	76.5808	1	721
152	37	107.589	50.9873	100.029	1	3
153	37	113.806	59.8238	6.0788	1	21
154	37	102.209	71.6807	50.3816	1	709
155	12	110.057	63.0323	61.2838	1	291
156	37	104.677	82.1741	32.6261	1	889
157	37	107.372	79.915	55.6885	1	715
158	12	110.711	76.0967	44.0572	1	703
159	37	103.633	72.248	76.3575	1	477
160	12	112.322	79.2849	106.118	1	823
161	37	106.24	85.8264	113.33	1	829
162	12	111.665	99.5165	4.95209	1	267
163	37	105.507	100.251	14.6128	1	309
164	12	110.099	87.7689	24.1951	1	883
165	12	107.458	88.1985	47.7408	1	571
166	12	101.545	89.0279	45.2301	1	273
167	37	109.434	89.8309	68.0779	1	303
168	12	101.755	86.7288	59.7418	1	279
169	37	112.212	90.5018	62.608	1	321
170	12	106.148	107.084	54.8213	1	691
ITEM: TIMESTEP
0.00516198
ITEM: NUMBER OF ATOMS
212
ITEM: BOX BOUNDS
0	114.8
0	114.8
0	114.8
ITEM: ATOMS id type x y z defect iddef
1	12	8.78824	7.24763	16.3454	1	2039
2	37	2.74033	11.7778	50.2766	1	471
3	37	4.34205	28.322	4.05876	1	261
4	37	8.45148	14.7	28.4501	1	441
5	37	2.68817	16.8768	14.9819	1	9
6	301	5.65685	19.0642	37.1098	3	1895
7	301	6.9905	17.7107	38.5082	3	1895
8	37	2.8762	28.894	0.461393	1	249
9	12	13.9857	35.7391	41.8503	1	553
10	37	12.2407	36.0428	61.0161	1	763
11	37	10.1112	51.9328	6.00199	1	901
12	37	0.831934	46.135	47.008	1	937
13	37	1.57387	50.4635	60.5209	1	775
14	37	6.81011	45.1229	100.377	1	631
15	12	5.16516	54.3493	107.007	1	601
16	12	8.09976	62.8089	0.681118	1	895
17	37	5.0336	68.6716	29.8817	1	871
18	12	0.232571	67.884	56.5329	1	2027
19	37	5.48709	68.3529	46.3368	1	2033
20	12	9.97139	59.7776	113.241	1	339
21	12	9.45124	79.1416	28.2531	1	853
22	12	7.24823	79.447	24.5337	1	859
23	12	0.259442	78.7067	48.3299	1	2015
24	37	10.6511	73.8381	48.6466	1	2021
25	12	13.2425	84.8666	86.4481	1	649
26	37	4.32542	77.8445	88.1706	1	1753
27	37	10.8048	95.7551	15.0577	1	1717
28	37	10.8203	89.2679	29.2856	1	877
29	37	12.4612	90.7821	98.8046	1	787
30	12	4.26232	97.9197	102.496	1	1729
31	37	2.6953	108.109	39.9848	1	1853
32	37	5.93558	104.777	56.1451	1	961
33	37	0.529953	107.213	61.711	1	697
34	12	8.8662	107.392	66.9322	1	955
35	12	4.65787	103.462	112.541	1	1723
36	37	19.7077	10.0438	42.1484	1	1789
37	12	27.0369	6.41792	99.26	1	351
38	37	22.1959	2.29606	89.7014	1	1705
39	12	21.2627	16.0327	32.4786	1	1777
40	413	19.6119	32.1432	43.6855	3	817
41	413	17.8039	32.1432	45.4935	3	817
42	37	21.3594	41.3092	51.4207	1	769
43	12	23.402	33.4757	60.2243	1	547
44	12	20.3649	34.6982	84.2228	1	129
45	37	26.6663	36.265	73.4876	1	153
46	12	26.4264	47.0472	69.5535	1	147
47	37	15.3175	57.9309	15.2404	1	997
48	12	17.098	71.0405	68.9717	1	1735
49	37	22.5509	66.7448	78.1151	1	1741
50	12	26.3658	82.5974	35.1745	1	847
51	37	23.0234	81.0749	108.241	1	1699
52	37	26.7968	85.0292	113.916	1	201
53	12	14.9597	93.3746	55.7226	1	1759
54	37	27.9608	86.5831	45.8216	1	865
55	37	25.0847	89.6928	87.0528	1	1985
56	12	25.5642	92.292	105.111	1	195
57	37	27.4427	113.262	8.40014	1	1711
58	37	15.6412	108.745	43.4626	1	1783
59	37	20.8872	101.763	60.85	1	1765
60	37	20.6689	110.812	95.5327	1	165
61	12	29.27	5.45006	17.3233	1	489
62	37	29.9717	32.1952	78.4577	1	141
63	37	36.4634	50.7191	58.1885	1	483
64	37	31.3832	43.96	82.3698	1	135
65	12	33.5287	52.9923	89.123	1	123
66	37	42.5361	61.2467	23.5032	1	949
67	12	36.9974	69.1859	29.6741	1	931
68	12	39.1414	61.0023	53.844	1	435
69	12	31.0343	80.094	84.9895	1	1979
70	37	38.7852	79.0576	110.061	1	225
71	37	41.9181	75.2432	109.372	1	213
72	12	35.8611	87.7881	97.4684	1	1943
73	12	35.4335	89.1632	105.767	1	1955
74	12	29.1729	106.024	105.795	1	159
75	12	51.0437	3.37829	79.0416	1	45
76	37	51.6442	1.05337	88.4095	1	57
77	37	46.9427	10.5291	87.0314	1	63
78	12	55.5127	2.5007	97.7615	1	375
79	12	47.256	10.9806	106.523	1	51
80	37	55.6629	18.7659	105.813	1	423
81	12	46.5338	29.2921	44.9128	1	835
82	12	56.2794	56.5467	12.351	1	973
83	37	48.1773	50.1992	17.436	1	991
84	37	50.6264	47.6437	52.5001	1	565
85	12	53.7417	59.8508	84.666	1	583
86	12	47.5221	59.3759	114.008	1	207
87	12	55.8162	76.3814	105.745	1	177
88	37	49.096	79.5258	114.505	1	189
89	12	57.029	86.3521	96.2523	1	381
90	37	53.1276	96.7211	93.2438	1	399
91	37	55.0003	109.889	17.151	1	925
92	12	55.1253	111.075	78.5686	1	39
93	37	48.9795	114.172	88.8552	1	393
94	37	71.5555	0.794516	25.7216	1	1997
95	37	66.5278	13.2644	29.2326	1	1937
96	37	68.7744	0.859104	102.3	1	405
97	12	59.6957	28.4795	4.69782	1	75
98	12	69.8809	25.2332	21.8479	1	985
99	37	63.928	27.638	108.86	1	105
100	37	58.45	39.8238	41.8289	1	841
101	37	67.3673	33.8504	53.8299	1	33
102	12	57.9736	40.4021	57.5368	1	559
103	37	70.3023	46.9178	13.2062	1	93
104	12	60.4987	46.0434	8.8165	1	979
105	37	65.538	55.3222	106.73	1	673
106	37	70.7617	67.4681	28.7321	1	327
107	37	67.4796	58.5969	47.3809	1	117