ITEM: TIMESTEP
0
ITEM: NUMBER OF ATOMS
0
ITEM: BOX BOUNDS
0	114.8
0	114.8
0	114.8
ITEM: ATOMS id type x y z defect iddef
ITEM: TIMESTEP
0.0108873
ITEM: NUMBER OF ATOMS
0
ITEM: BOX BOUNDS
0	114.8
0	114.8
0	114.8
ITEM: ATOMS id type x y z defect iddef
ITEM: TIMESTEP
0.0184693
ITEM: NUMBER OF ATOMS
0
ITEM: BOX BOUNDS
0	114.8
0	114.8
0	114.8
ITEM: ATOMS id type x y z defect iddef
ITEM: TIMESTEP
0.0275698
ITEM: NUMBER OF ATOMS
4
ITEM: BOX BOUNDS
0	114.8
0	114.8
0	114.8
ITEM: ATOMS id type x y z defect iddef
1	12	90.986	56.3435	63.0811	1	1003
2	37	93.2363	49.8923	72.3065	1	1009
3	37	86.9152	67.3441	94.4301	1	1021
4	12	89.5978	78.2327	96.8862	1	1015
ITEM: TIMESTEP
0.0319117
ITEM: NUMBER OF ATOMS
10
ITEM: BOX BOUNDS
0	114.8
0	114.8
0	114.8
ITEM: ATOMS id type x y z defect iddef
1	37	54.0524	29.3117	27.7296	1	985
2	12	56.2794	56.5467	12.351	1	973
3	37	48.1773	50.1992	17.436	1	991
4	12	63.5335	30.2522	34.1339	1	967
5	12	60.4987	46.0434	8.8165	1	979
6	37	71.8058	45.795	6.84703	1	997
7	12	90.986	56.3435	63.0811	1	1003
8	37	93.2363	49.8923	72.3065	1	1009
9	37	86.9152	67.3441	94.4301	1	1021
10	12	89.5978	78.2327	96.8862	1	1015
ITEM: TIMESTEP
0.0417935
ITEM: NUMBER OF ATOMS
9
ITEM: BOX BOUNDS
0	114.8
0	114.8
0	114.8
ITEM: ATOMS id type x y z defect iddef
1	37	5.93558	104.777	56.1451	1	961
2	12	8.8662	107.392	66.9322	1	955
3	37	42.5361	61.2467	23.5032	1	985
4	12	36.9974	69.1859	29.6741	1	973
5	12	63.5335	30.2522	34.1339	1	967
6	12	99.7092	42.1563	57.8099	1	979
7	37	86.9152	67.3441	94.4301	1	1021
8	12	89.5978	78.2327	96.8862	1	1015
9	37	108.495	37.6943	50.3517	1	991
ITEM: TIMESTEP
0.0500184
ITEM: NUMBER OF ATOMS
9
ITEM: BOX BOUNDS
0	114.8
0	114.8
0	114.8
ITEM: ATOMS id type x y z defect iddef
1	37	5.93558	104.777	56.1451	1	961
2	12	8.8662	107.392	66.9322	1	955
3	37	42.5361	61.2467	23.5032	1	985
4	12	36.9974	69.1859	29.6741	1	973
5	12	46.8087	104.196	11.47	1	1009
6	37	55.0003	109.889	17.151	1	997
7	12	63.5335	30.2522	34.1339	1	967
8	12	99.7092	42.1563	57.8099	1	979
9	37	108.495	37.6943	50.3517	1	991
ITEM: TIMESTEP
0.0646281
ITEM: NUMBER OF ATOMS
13
ITEM: BOX BOUNDS
0	114.8
0	114.8
0	114.8
ITEM: ATOMS id type x y z defect iddef
1	37	10.1112	51.9328	6.00199	1	1003
2	37	5.93558	104.777	56.1451	1	961
3	12	8.8662	107.392	66.9322	1	955
4	12	20.9448	52.2371	2.21636	1	949
5	37	42.5361	61.2467	23.5032	1	985
6	12	36.9974	69.1859	29.6741	1	973
7	12	46.8087	104.196	11.47	1	1009
8	37	55.0003	109.889	17.151	1	997
9	12	63.5335	30.2522	34.1339	1	967
10	12	99.7092	42.1563	57.8099	1	979
11	12	99.241	83.3915	83.5613	1	1021
12	37	108.495	37.6943	50.3517	1	991
13	37	109.549	84.262	78.5846	1	1015
ITEM: TIMESTEP
0.0747022
ITEM: NUMBER OF ATOMS
16
ITEM: BOX BOUNDS
0	114.8
0	114.8
0	114.8
ITEM: ATOMS id type x y z defect iddef
1	37	10.1112	51.9328	6.00199	1	1003
2	37	5.93558	104.777	56.1451	1	961
3	12	8.8662	107.392	66.9322	1	955
4	12	20.9448	52.2371	2.21636	1	949
5	37	42.5361	61.2467	23.5032	1	985
6	12	36.9974	69.1859	29.6741	1	973
7	37	56.6964	26.2454	33.3921	1	943
8	12	49.9628	34.3976	28.9212	1	937
9	12	46.8087	104.196	11.47	1	1009
10	37	55.0003	109.889	17.151	1	997
11	37	74.419	55.2113	43.2808	1	967
12	12	74.2027	64.8303	37.0182	1	931
13	12	99.7092	42.1563	57.8099	1	979
14	12	99.241	83.3915	83.5613	1	1021
15	37	108.495	37.6943	50.3517	1	991
16	37	109.549	84.262	78.5846	1	1015
ITEM: TIMESTEP
0.0837416
ITEM: NUMBER OF ATOMS
24
ITEM: BOX BOUNDS
0	114.8
0	114.8
0	114.8
ITEM: ATOMS id type x y z defect iddef
1	37	10.1112	51.9328	6.00199	1	1003
2	37	5.0336	68.6716	29.8817	1	907
3	12	9.45124	79.1416	28.2531	1	889
4	12	7.24823	79.447	24.5337	1	895
5	37	10.8203	89.2679	29.2856	1	913
6	37	5.93558	104.777	56.1451	1	961
7	12	8.8662	107.392	66.9322	1	955
8	12	20.9448	52.2371	2.21636	1	949
9	12	26.3658	82.5974	35.1745	1	883
10	37	27.9608	86.5831	45.8216	1	901
11	37	42.5361	61.2467	23.5032	1	985
12	12	36.9974	69.1859	29.6741	1	973
13	37	56.6964	26.2454	33.3921	1	943
14	12	49.9628	34.3976	28.9212	1	937
15	12	46.8087	104.196	11.47	1	1009
16	37	55.0003	109.889	17.151	1	997
17	37	74.419	55.2113	43.2808	1	967
18	12	74.2027	64.8303	37.0182	1	931
19	12	99.7092	42.1563	57.8099	1	979
20	12	99.241	83.3915	83.5613	1	1021
21	37	108.495	37.6943	50.3517	1	991
22	37	104.677	82.1741	32.6261	1	925
23	37	109.549	84.262	78.5846	1	1015
24	12	110.099	87.7689	24.1951	1	919
ITEM: TIMESTEP
0.093015
ITEM: NUMBER OF ATOMS
26
ITEM: BOX BOUNDS
0	114.8
0	114.8
0	114.8
ITEM: ATOMS id type x y z defect iddef
1	37	10.1112	51.9328	6.00199	1	1003
2	37	5.0336	68.6716	29.8817	1	907
3	12	9.45124	79.1416	28.2531	1	889
4	12	7.24823	79.447	24.5337	1	895
5	37	10.8203	89.2679	29.2856	1	913
6	37	5.93558	104.777	56.1451	1	961
7	12	8.8662	107.392	66.9322	1	955
8	12	20.9448	52.2371	2.21636	1	949
9	12	26.3658	82.5974	35.1745	1	883
10	37	27.9608	86.5831	45.8216	1	901
11	37	42.5361	61.2467	23.5032	1	985
12	12	36.9974	69.1859	29.6741	1	973
13	37	56.6964	26.2454	33.3921	1	943
14	12	49.9628	34.3976	28.9212	1	937
15	12	46.5338	29.2921	44.9128	1	835
16	12	46.8087	104.196	11.47	1	1009
17	37	55.0003	109.889	17.151	1	997
18	37	58.45	39.8238	41.8289	1	853
19	37	74.419	55.2113	43.2808	1	967
20	12	74.2027	64.8303	37.0182	1	931
21	12	99.7092	42.1563	57.8099	1	979
22	12	99.241	83.3915	83.5613	1	1021
23	37	108.495	37.6943	50.3517	1	991
24	37	104.677	82.1741	32.6261	1	925
25	37	109.549	84.262	78.5846	1	1015
26	12	110.099	87.7689	24.1951	1	919
ITEM: TIMESTEP
0.100807
ITEM: NUMBER OF ATOMS
36
ITEM: BOX BOUNDS
0	114.8
0	114.8
0	114.8
ITEM: ATOMS id type x y z defect iddef
1	12	4.32589	32.4833	41.1457	1	793
2	12	4.34309	32.4833	44.0159	1	787
3	37	10.1112	51.9328	6.00199	1	1003
4	37	0.831934	46.135	47.008	1	805
5	37	1.57387	50.4635	60.5209	1	799
6	37	5.0336	68.6716	29.8817	1	907
7	12	9.45124	79.1416	28.2531	1	889
8	12	7.24823	79.447	24.5337	1	895
9	37	10.8203	89.2679	29.2856	1	913
10	37	5.93558	104.777	56.1451	1	961
11	12	8.8662	107.392	66.9322	1	955
12	12	20.9448	52.2371	2.21636	1	949
13	12	26.3658	82.5974	35.1745	1	883
14	37	27.9608	86.5831	45.8216	1	901
15	37	42.5361	61.2467	23.5032	1	985
16	12	36.9974	69.1859	29.6741	1	973
17	12	46.8087	104.196	11.47	1	1009
18	37	55.0003	109.889	17.151	1	997
19	37	68.7536	39.0207	47.8273	1	859
20	12	72.2258	28.3677	45.3278	1	877
21	12	74.2027	64.8303	37.0182	1	931
22	37	96.0072	28.5429	66.9378	1	775
23	37	92.6719	20.3814	62.8349	1	823
24	37	99.6167	30.34	42.4477	1	769
25	12	99.7092	42.1563	57.8099	1	979
26	12	86.9129	31.7383	73.1727	1	757
27	37	90.7527	44.2998	45.9642	1	781
28	12	99.241	83.3915	83.5613	1	1021
29	12	109.925	15.5583	50.0675	1	871
30	37	111.768	23.0946	58.529	1	865
31	12	109.077	33.9543	39.7707	1	817
32	37	104.677	82.1741	32.6261	1	925
33	37	109.549	84.262	78.5846	1	1015
34	12	112.322	79.2849	106.118	1	847
35	37	106.24	85.8264	113.33	1	841
36	12	110.099	87.7689	24.1951	1	919
ITEM: TIMESTEP
0.114493
ITEM: NUMBER OF ATOMS
35
ITEM: BOX BOUNDS
0	114.8
0	114.8
0	114.8
ITEM: ATOMS id type x y z defect iddef
1	37	10.1112	51.9328	6.00199	1	1003
2	37	5.0336	68.6716	29.8817	1	907
3	12	9.45124	79.1416	28.2531	1	889
4	12	7.24823	79.447	24.5337	1	895
5	37	10.8203	89.2679	29.2856	1	913
6	37	5.93558	104.777	56.1451	1	961
7	12	8.8662	107.392	66.9322	1	955
8	12	20.9448	52.2371	2.21636	1	949
9	12	26.3658	82.5974	35.1745	1	883
10	37	27.9608	86.5831	45.8216	1	901
11	37	42.5361	61.2467	23.5032	1	985
12	12	46.8087	104.196	11.47	1	1009
13	37	55.0003	109.889	17.151	1	997
14	37	68.7536	39.0207	47.8273	1	859
15	12	72.2258	28.3677	45.3278	1	877
16	12	74.2027	64.8303	37.0182	1	931
17	37	96.0072	28.5429	66.9378	1	775
18	37	92.6719	20.3814	62.8349	1	823
19	37	99.6167	30.34	42.4477	1	769
20	12	99.7092	42.1563	57.8099	1	979
21	12	86.9129	31.7383	73.1727	1	757
22	37	90.7527	44.2998	45.9642	1	781
23	37	97.0238	43.2318	73.3888	1	973
24	12	99.241	83.3915	83.5613	1	1021
25	12	109.925	15.5583	50.0675	1	871
26	37	111.768	23.0946	58.529	1	865
27	12	109.077	33.9543	39.7707	1	817
28	12	103.446	33.9495	71.2941	1	799
29	12	105.042	46.5327	47.446	1	763
30	37	110.132	56.6163	45.3937	1	751
31	37	104.677	82.1741	32.6261	1	925
32	37	109.549	84.262	78.5846	1	1015
33	12	112.322	79.2849	106.118	1	847
34	37	106.24	85.8264	113.33	1	841
35	12	110.099	87.7689	24.1951	1	919
ITEM: TIMESTEP
1.00137
ITEM: NUMBER OF ATOMS
40
ITEM: BOX BOUNDS
0	114.8
0	114.8
0	114.8
ITEM: ATOMS id type x y z defect iddef
1	12	0.32023	10.5686	18.8537	1	971
2	37	10.2948	33.2679	5.62294	1	811
3	37	8.23496	40.8988	8.59071	1	631
4	12	21.7213	33.4305	6.71719	1	869
5	12	23.0546	45.041	56.6422	1	583
6	37	23.6658	49.5164	67.1963	1	463
7	12	24.3834	60.7649	77.3921	1	643
8	183	27.8744	71.1896	72.7311	3	1007
9	37	25.8135	68.3988	101.366	1	925
10	37	25.3424	61.7508	109.791	1	827
11	183	25.1357	71.7883	70.5912	3	1007
12	183	21.3245	77.244	72.2357	3	1007
13	183	23.4432	74.6521	71.7624	3	1007
14	183	27.8744	73.6834	75.2248	3	1007
15	183	25.1357	75.8233	74.6262	3	1007
16	12	33.5791	45.0558	75.6967	1	979
17	37	37.8529	53.2108	82.554	1	571
18	37	33.4266	55.4981	72.6727	1	857
19	37	39.2657	53.1077	95.2718	1	955
20	12	38.0778	64.0884	98.4028	1	739
21	12	36.4808	61.3297	107.043	1	931
22	12	40.9868	87.4826	22.5844	1	917
23	12	52.0968	58.7824	94.2502	1	901
24	12	53.2468	72.8783	93.1266	1	691
25	37	45.7108	76.3329	101.115	1	1021
26	12	57.7449	2.01462	93.4507	1	793
27	37	65.2496	5.38969	101.456	1	723
28	12	78.1373	11.7287	49.7517	1	637
29	37	89.0465	10.9175	53.2335	1	853
30	37	90.9091	16.6547	50.004	1	607
31	37	88.6119	24.1409	103.561	1	941
32	37	87.6836	109	46.0169	1	755
33	37	99.3836	105.046	82.976	1	589
34	37	104.552	10.9975	23.3159	1	751
35	12	102.139	18.0591	48.0792	1	505
36	12	107.113	20.0845	77.2562	1	469
37	37	110.022	47.8491	32.8081	1	733
38	12	113.125	48.8861	44.1402	1	879
39	37	113.378	103.7	27.2343	1	907
40	37	110.802	105.797	55.6239	1	895
ITEM: TIMESTEP
2.00326
ITEM: NUMBER OF ATOMS
86
ITEM: BOX BOUNDS
0	114.8
0	114.8
0	114.8
ITEM: ATOMS id type x y z defect iddef
1	37	10.8965	11.0109	6.91181	1	689
2	12	5.93154	10.8449	23.4088	1	475
3	12	3.06377	10.852	26.2817	1	635
4	12	0.196009	10.8591	29.1545	1	967
5	37	5.5825	0.331273	78.3407	1	451
6	183	13.3355	7.94963	97.0341	3	3
7	183	13.3355	10.4434	94.5403	3	3
8	37	1.58355	68.8883	17.2461	1	1907
9	37	7.33154	82.7862	42.0557	1	563
10	12	3.63607	92.9271	38.1446	1	857
11	12	0.95711	93.0577	104.551	1	1973
12	12	2.04646	89.0193	105.652	1	2039
13	37	1.33023	110.729	5.2681	1	111
14	12	7.05345	109.451	15.1374	1	2009
15	12	0.161815	105.567	46.3763	1	1911
16	12	9.72098	108.346	86.6247	1	201
17	37	24.6223	5.88712	15.1354	1	407
18	12	15.315	8.11578	22.7164	1	307
19	37	26.024	5.77653	19.3054	1	521
20	183	15.7692	12.2042	90.3458	3	3
21	183	17.5008	10.9117	89.9067	3	3
22	183	18.9376	9.25373	90.1279	3	3
23	183	19.8853	7.45421	90.9797	3	3
24	183	17.7667	6.98093	93.5716	3	3
25	183	16.0741	5.80971	96.4354	3	3
26	183	16.0741	9.8447	92.4004	3	3
27	12	25.3106	17.1543	17.225	1	383
28	37	22.6375	20.1887	74.3994	1	1019
29	12	27.5078	48.6816	54.5551	1	2019
30	183	27.8744	71.1896	72.7311	3	87
31	183	25.1357	71.7883	70.5912	3	87
32	183	23.4432	74.6521	71.7624	3	87
33	183	27.8744	73.6834	75.2248	3	87
34	183	25.1357	75.8233	74.6262	3	87
35	12	16.028	100.418	16.7725	1	969
36	37	14.9244	109.497	40.035	1	507
37	37	32.2248	30.3026	25.774	1	159
38	37	39.714	31.4847	20.0553	1	1913
39	12	37.9549	43.6385	18.6906	1	777
40	37	36.9572	47.4941	61.49	1	99
41	37	42.7114	86.3531	32.5637	1	643
42	37	52.5801	93.9919	2.47528	1	649
43	12	52.3818	90.757	24.7784	1	233
44	37	56.7889	105.917	112.279	1	981
45	12	65.0002	66.9785	60.7514	1	741
46	37	58.3112	72.6222	68.1809	1	819
47	12	57.879	90.8253	107.596	1	471
48	37	82.2859	0.386404	16.597	1	483
49	37	85.3696	9.53742	52.5439	1	547
50	37	85.2313	75.2641	45.589	1	93
51	12	81.7073	108.108	9.36318	1	437
52	413	94.6353	27.1364	47.1858	3	211
53	413	96.4433	27.1364	45.3778	3	211
54	413	94.6353	27.1364	43.5698	3	211
55	413	92.8273	27.1364	45.3778	3	211
56	37	88.1514	23.9739	54.0023	1	2045
57	413	96.4433	30.7524	45.3778	3	211
58	413	96.4433	28.9444	47.1858	3	211
59	413	92.8273	28.9444	47.1858	3	211
60	413	94.6353	30.7524	47.1858	3	211
61	413	92.8273	30.7524	45.3778	3	211
62	413	92.8273	28.9444	43.5698	3	211
63	413	96.4433	28.9444	43.5698	3	211
64	413	94.6353	28.9444	45.3778	3	211
65	37	96.7456	44.0567	48.237	1	343
66	12	98.2044	51.1556	92.8751	1	1987
67	12	94.9201	93.395	37.3759	1	215
68	12	86.5434	112.283	26.8554	1	33
69	37	99.2292	103.783	39.6811	1	227
70	37	104.031	28.1753	19.5348	1	313
71	37	105.279	16.4784	47.2484	1	397
72	37	108.373	41.7832	30.6489	1	701
73	12	107.216	35.4727	82.9656	1	1881
74	12	111.856	49.0372	51.1198	1	151
75	12	108.986	54.7778	51.1196	1	317
76	12	107.551	47.6019	49.6843	1	281
77	37	106.032	46.8321	81.8034	1	353
78	37	114.314	51.7013	77.5724	1	239
79	37	108.205	69.1081	50.3507	1	1945
80	37	105.908	64.0471	65.021	1	1875
81	37	108.978	60.774	66.9923	1	209
82	37	106.707	57.5243	88.5242	1	1959
83	37	108.21	71.9854	43.2545	1	477
84	12	109.255	92.5929	18.6387	1	297
85	37	101.136	89.1303	25.9789	1	925
86	12	109.097	90.8292	62.2868	1	519
ITEM: TIMESTEP
3.00262
ITEM: NUMBER OF ATOMS
64
ITEM: BOX BOUNDS
0	114.8
0	114.8
0	114.8
ITEM: ATOMS id type x y z defect iddef
1	12	10.098	9.50324	21.3143	1	743
2	37	12.3145	4.95577	39.1946	1	713
3	12	3.07396	10.6815	70.2497	1	317
4	183	10.5016	11.393	96.4246	3	943
5	183	11.152	12.5217	94.6455	3	943
6	183	12.3649	13.0675	92.8868	3	943
7	183	13.9765	12.9567	91.386	3	943
8	183	13.3355	7.94963	97.0341	3	943
9	183	13.3355	10.4434	94.5403	3	943
10	12	5.58722	14.4877	38.1315	1	87
11	183	12.6159	20.2645	55.7177	3	387
12	183	10.1222	22.7583	55.7177	3	387
13	183	8.6905	16.858	51.7329	3	799
14	183	10.4221	18.1506	51.2938	3	799
15	183	11.8589	19.8085	51.515	3	799
16	183	12.8066	21.608	52.3668	3	799
17	183	10.688	22.0813	54.9587	3	799
18	183	6.2568	18.6189	55.9274	3	799
19	183	8.99541	19.2176	53.7875	3	799
20	183	13.1113	26.319	62.2676	3	387
21	183	13.5846	23.727	60.1489	3	387
22	183	10.7209	24.8982	58.4563	3	387
23	183	8.99541	23.2525	57.8225	3	799
24	183	6.2568	21.1126	58.4212	3	799
25	301	3.80991	22.3779	76.83	3	185
26	301	3.80991	22.3779	76.83	3	185
27	301	3.80991	22.3779	76.83	3	185
28	301	3.80991	22.3779	76.83	3	185
29	12	3.47613	35.4973	45.2591	1	577
30	37	0.138769	28.9689	54.0927	1	853
31	301	11.4751	45.8014	26.8896	3	553
32	301	11.8863	44.498	24.836	3	553
33	37	1.17824	53.8267	18.9674	1	1525
34	12	4.49813	50.4244	34.7471	1	859
35	37	18.204	2.20289	17.7382	1	1697
36	183	15.7692	12.2042	90.3458	3	943
37	183	17.5008	10.9117	89.9067	3	943
38	183	18.9376	9.25373	90.1279	3	943
39	183	19.8853	7.45421	90.9797	3	943
40	183	17.7667	6.98093	93.5716	3	943
41	183	16.0741	5.80971	96.4354	3	943
42	183	16.0741	9.8447	92.4004	3	943
43	12	24.6946	23.6167	63.8081	1	517
44	183	14.7558	20.8632	58.4563	3	387
45	37	27.9101	31.5394	12.0906	1	437
46	12	27.0166	69.4377	23.0472	1	1873
47	37	25.89	64.8934	33.5291	1	1621
48	37	30.0467	13.5935	65.4452	1	1411
49	37	39.2378	3.65065	102.539	1	957
50	12	35.9452	25.4966	6.5489	1	699
51	37	32.6026	47.826	99.7753	1	945
52	37	41.0629	68.0669	27.8492	1	837
53	37	28.9297	67.9614	33.6012	1	267
54	12	43.0496	67.7316	107.185	1	467
55	12	38.1412	107.028	102.87	1	187
56	37	51.1128	65.13	40.0864	1	337
57	37	49.3819	81.7539	20.6747	1	273
58	12	58.9686	78.11	15.5165	1	807
59	12	72.8371	99.5794	65.4921	1	803
60	37	74.788	90.7361	58.4366	1	1627
61	37	100.194	80.4531	65.5052	1	849
62	12	101.598	3.7991	59.2964	1	1011
63	12	103.888	74.1446	56.6537	1	1961
64	12	113.681	91.7512	26.8662	1	1015
ITEM: TIMESTEP
4.00236
ITEM: NUMBER OF ATOMS
105
ITEM: BOX BOUNDS
0	114.8
0	114.8
0	114.8
ITEM: ATOMS id type x y z defect iddef
1	37	8.90592	13.2121	39.8407	1	1407
2	12	8.24091	5.78978	48.5732	1	1893
3	183	13.9765	4.79533	99.5474	3	4085
4	183	12.3649	6.29612	99.6582	3	4085
5	183	11.152	8.05481	99.1125	3	4085
6	183	10.5016	9.83388	97.9838	3	4085
7	183	10.5016	11.393	96.4246	3	4085
8	183	11.152	12.5217	94.6455	3	4085
9	183	12.3649	13.0675	92.8868	3	4085
10	183	13.9765	12.9567	91.386	3	4085
11	183	13.3355	7.94963	97.0341	3	4085
12	183	13.3355	10.4434	94.5403	3	4085
13	12	5.47865	19.687	1.3515	1	1367
14	37	1.40837	19.2116	12.0752	1	1461
15	183	12.6159	20.2645	55.7177	3	3953
16	183	10.1222	22.7583	55.7177	3	3953
17	183	10.4221	18.1506	51.2938	3	1435
18	183	11.8589	19.8085	51.515	3	1435
19	183	12.8066	21.608	52.3668	3	1435
20	183	10.688	22.0813	54.9587	3	1435
21	183	6.2568	18.6189	55.9274	3	1435
22	183	8.99541	19.2176	53.7875	3	1435
23	183	11.3118	27.1707	61.3198	3	3953
24	183	13.1113	26.319	62.2676	3	3953
25	183	13.5846	23.727	60.1489	3	3953
26	183	10.7209	24.8982	58.4563	3	3953
27	183	8.99541	23.2525	57.8225	3	1435
28	183	6.2568	21.1126	58.4212	3	1435
29	37	4.76202	17.3677	87.3688	1	1589
30	12	13.9341	42.5636	96.6826	1	1161
31	183	0.800879	37.441	109.3	3	27
32	183	2.91955	36.9678	106.708	3	27
33	183	4.61211	35.7965	103.844	3	27
34	183	7.35072	37.9365	103.245	3	27
35	183	7.35072	40.4302	105.739	3	27
36	183	4.61211	39.8315	107.879	3	27
37	12	11.8515	44.5387	96.6795	1	1149
38	183	15.7692	12.2042	90.3458	3	4085
39	183	17.5008	10.9117	89.9067	3	4085
40	183	18.9376	9.25373	90.1279	3	4085
41	183	19.8853	7.45421	90.9797	3	4085
42	183	17.7667	6.98093	93.5716	3	4085
43	183	16.0741	5.80971	96.4354	3	4085
44	183	16.0741	9.8447	92.4004	3	4085
45	183	14.7558	20.8632	58.4563	3	3953
46	12	14.6014	38.1785	38.7953	1	1015
47	12	15.7856	44.5174	97.6791	1	1143
48	37	14.9585	72.793	92.0075	1	1933
49	37	39.6049	38.6183	64.3961	1	1681
50	37	39.5791	69.8843	108.103	1	2037
51	37	52.526	62.4085	10.5466	1	1669
52	12	45.3696	61.8083	102.355	1	1317
53	183	51.4463	106.493	69.4898	3	1635
54	183	49.3276	109.085	69.0165	3	1635
55	183	47.635	111.949	67.8453	3	1635
56	183	44.8964	112.547	69.9852	3	1635
57	183	51.2554	103.245	72.9283	3	1635
58	183	44.8964	110.054	72.4789	3	1635
59	183	47.635	107.914	71.8802	3	1635
60	37	65.8868	1.70791	4.27589	1	1807
61	12	61.1249	56.5842	15.4382	1	891
62	37	65.9019	93.5844	6.01023	1	1759
63	413	67.8508	111.705	66.2466	3	3983
64	413	67.8508	109.897	68.0546	3	3983
65	413	71.4668	111.705	66.2466	3	3983
66	413	69.6588	111.705	68.0546	3	3983
67	12	76.487	4.87536	1.21101	1	355
68	12	83.927	32.7021	49.4424	1	837
69	37	81.0693	43.6521	47.5131	1	4049
70	37	86.0555	97.1391	89.0231	1	691
71	12	85.9869	110.014	68.6466	1	1293
72	183	99.8904	2.66254	1.74631	3	2003
73	37	98.8905	1.28252	14.8275	1	285
74	183	92.668	0.255747	111.731	3	2003
75	183	97.7505	3.26124	113.808	3	2003
76	183	95.2567	0.767474	113.808	3	2003
77	12	99.3139	25.174	24.2656	1	1897
78	12	87.5099	25.1433	86.2599	1	739
79	12	90.8214	84.3001	86.7148	1	231
80	12	91.7178	87.6632	85.8711	1	399
81	37	98.0508	92.7344	78.1758	1	1601
82	37	87.0861	92.1757	94.1855	1	415
83	183	91.1044	110.017	0.405642	3	2003
84	183	93.4959	111.373	1.4414	3	2003
85	183	94.7884	110.934	3.17304	3	2003
86	183	96.4464	111.155	4.60977	3	2003
87	183	98.2459	112.007	5.55754	3	2003
88	183	98.7192	114.599	3.43887	3	2003
89	183	95.8554	113.428	1.74631	3	2003
90	37	86.4417	104.808	91.1524	1	3929
91	37	87.5679	112.982	86.1021	1	1379
92	183	91.5394	113.277	112.381	3	2003
93	183	90.9936	111.518	113.594	3	2003
94	12	102.39	12.9985	21.3234	1	129
95	37	101.846	6.14192	30.5148	1	717
96	37	105.463	6.27308	79.2144	1	1203
97	12	113.87	16.6942	78.1709	1	1899
98	37	108.668	46.1211	103.964	1	1553
99	37	112.776	70.695	84.1189	1	309
100	12	113.316	82.9489	47.8105	1	175
101	12	105.462	76.4908	90.8052	1	1733
102	12	109.968	86.6405	16.6083	1	3917
103	37	110.504	94.0499	47.0047	1	1813
104	12	105.121	98.921	71.578	1	377
105	12	108.436	112.199	9.76767	1	585
ITEM: TIMESTEP
5.00558
ITEM: NUMBER OF ATOMS
280
ITEM: BOX BOUNDS
0	114.8
0	114.8
0	114.8
ITEM: ATOMS id type x y z defect iddef
1	12	5.57617	8.8843	63.0552	1	1365
2	12	9.74193	0.724114	78.7384	1	65
3	12	8.34886	5.53686	87.7933	1	1827
4	183	13.9765	4.79533	99.5474	3	761
5	183	12.3649	6.29612	99.6582	3	761
6	183	11.152	8.05481	99.1125	3	761
7	183	10.5016	9.83388	97.9838	3	761
8	183	10.5016	11.393	96.4246	3	761
9	183	11.152	12.5217	94.6455	3	761
10	183	12.3649	13.0675	92.8868	3	761
11	183	13.9765	12.9567	91.386	3	761
12	183	13.3355	7.94963	97.0341	3	761
13	183	13.3355	10.4434	94.5403	3	761
14	12	9.82386	23.9783	2.40716	1	1585
15	37	2.08266	26.4242	10.5239	1	137
16	183	12.6159	20.2645	55.7177	3	917
17	183	10.1222	22.7583	55.7177	3	917
18	183	10.4221	18.1506	51.2938	3	1095
19	183	11.8589	19.8085	51.515	3	1095
20	183	12.8066	21.608	52.3668	3	1095
21	183	10.688	22.0813	54.9587	3	1095
22	183	6.2568	18.6189	55.9274	3	1095
23	183	8.99541	19.2176	53.7875	3	1095
24	183	9.65386	27.3919	59.8831	3	917
25	183	11.3118	27.1707	61.3198	3	917
26	183	13.1113	26.319	62.2676	3	917
27	183	13.5846	23.727	60.1489	3	917
28	183	10.7209	24.8982	58.4563	3	917
29	183	8.99541	23.2525	57.8225	3	1095
30	183	6.2568	21.1126	58.4212	3	1095
31	12	0.0501873	42.0688	62.989	1	1371
32	37	12.93	38.6422	81.947	1	171
33	183	6.70971	42.9435	108.893	3	1467
34	183	4.91702	42.191	109.934	3	1467
35	183	3.18538	40.8985	110.373	3	1467
36	183	1.74865	39.2406	110.151	3	1467
37	183	0.800879	37.441	109.3	3	1467
38	183	2.91955	36.9678	106.708	3	1467
39	183	4.61211	35.7965	103.844	3	1467
40	183	7.35072	37.9365	103.245	3	1467
41	183	7.35072	40.4302	105.739	3	1467
42	183	4.61211	39.8315	107.879	3	1467
43	37	11.0085	47.4743	5.52057	1	1395
44	37	11.3548	71.0795	23.3197	1	3821
45	12	3.50782	59.9993	37.8622	1	1359
46	12	2.53274	66.4617	79.5132	1	487
47	12	4.79116	74.9199	9.88236	1	1851
48	12	1.21871	72.0572	8.57986	1	559
49	12	4.21697	77.2436	15.8373	1	1805
50	37	9.52496	78.1898	109.264	1	1175
51	37	10.9231	91.3935	16.7354	1	135
52	37	7.23499	90.736	17.0565	1	2023
53	12	6.84022	102.917	1.23012	1	355
54	37	11.9676	110.281	5.15532	1	1323
55	37	5.93844	108.156	32.4666	1	1341
56	12	10.377	110.755	82.7358	1	1101
57	12	9.31344	113.409	82.9809	1	3879
58	12	7.08734	114.445	78.9034	1	471
59	12	4.43274	113.367	79.0684	1	1517
60	37	10.359	107.937	93.6421	1	1603
61	37	19.5788	11.7071	13.3243	1	711
62	12	18.2414	12.0328	66.9758	1	3773
63	12	21.8088	7.12705	65.643	1	1203
64	12	22.0971	4.33413	76.446	1	801
65	12	17.2772	1.84561	82.4859	1	389
66	183	18.9376	3.53723	95.8445	3	761
67	183	17.5008	3.31599	97.5024	3	761
68	183	15.7692	3.75512	98.7949	3	761
69	183	15.7692	12.2042	90.3458	3	761
70	183	17.5008	10.9117	89.9067	3	761
71	183	18.9376	9.25373	90.1279	3	761
72	183	19.8853	7.45421	90.9797	3	761
73	183	17.7667	6.98093	93.5716	3	761
74	183	16.0741	5.80971	96.4354	3	761
75	183	16.0741	9.8447	92.4004	3	761
76	12	25.6281	21.2515	11.2993	1	3849
77	183	14.7558	20.8632	58.4563	3	917
78	12	17.0239	17.4415	80.526	1	963
79	12	20.3517	20.4697	78.9735	1	1779
80	12	16.3041	24.2037	88.1934	1	1501
81	12	15.4852	26.6928	91.2934	1	367
82	37	16.7659	24.1914	107.663	1	1495
83	12	28.622	38.5908	69.8417	1	1997
84	12	25.9096	41.6954	104.762	1	1617
85	12	24.6379	50.614	15.3557	1	2005
86	12	28.0438	60.5451	0.463143	1	1583
87	12	15.5236	64.4657	7.81876	1	4005
88	37	27.2916	57.5427	24.1159	1	4089
89	37	28.5978	61.5811	15.5717	1	1007
90	37	23.639	63.6948	14.7514	1	483
91	37	16.1047	65.0193	79.1199	1	317
92	37	21.9658	58.4455	104.163	1	1593
93	12	24.9989	64.0703	114.286	1	1961
94	37	16.727	70.1341	112.709	1	29
95	37	21.4714	85.5305	25.0834	1	1477
96	37	21.9294	89.9847	21.5709	1	1839
97	12	26.9356	87.3359	35.0169	1	267
98	37	19.0657	98.8861	94.9492	1	4077
99	12	17.6129	87.3637	112.763	1	663
100	12	22.1413	98.7293	110.148	1	1613
101	12	21.3842	103.055	105.391	1	1047
102	12	42.7812	4.04796	99.4456	1	1225
103	37	33.1956	28.6054	66.5006	1	1265
104	37	30.8786	41.5004	9.19785	1	947
105	183	42.8377	44.5475	19.8502	3	1437
106	12	40.1684	70.5864	11.548	1	311
107	12	37.5138	69.5076	11.713	1	415
108	37	35.4247	61.696	29.1324	1	4095
109	12	39.6932	77.1831	22.0704	1	331
110	12	40.8558	78.8016	26.3928	1	1659
111	12	40.4654	83.4055	25.2504	1	401
112	12	42.827	75.8741	77.6161	1	1443
113	37	35.631	91.6021	25.3753	1	75
114	12	31.4812	113.193	79.293	1	1935
115	12	39.4153	109.101	106.383	1	1291
116	301	54.1269	4.67036	83.1122	3	1357
117	301	52.1934	3.96304	84.0675	3	1357
118	12	51.5638	4.79524	95.8506	1	1385
119	12	46.7821	9.02559	96.5056	1	451
120	37	53.6371	17.293	35.1882	1	1995
121	37	55.4985	37.0075	16.4557	1	1383
122	183	44.9776	41.8089	19.2515	3	1437
123	183	47.4714	41.8089	21.7453	3	1437
124	183	44.4822	48.3587	25.3059	3	1437
125	183	44.0089	46.2401	22.714	3	1437
126	183	46.8727	44.5475	23.8852	3	1437
127	37	44.721	64.5709	78.2813	1	3983
128	37	53.8514	65.5847	114.101	1	347
129	37	45.3385	88.7568	14.2843	1	1831
130	37	55.2263	88.3152	14.0075	1	1799
131	37	53.0005	98.9805	44.4445	1	1223
132	37	54.4627	86.5766	69.1076	1	1865
133	37	50.2643	90.2506	94.8977	1	1915
134	12	52.0314	90.6141	106.235	1	299
135	183	51.4463	106.493	69.4898	3	841
136	183	49.3276	109.085	69.0165	3	841
137	183	47.635	111.949	67.8453	3	841
138	183	44.8964	112.547	69.9852	3	841
139	183	49.8187	103.024	74.5863	3	841
140	183	51.2554	103.245	72.9283	3	841
141	183	44.8964	110.054	72.4789	3	841
142	183	47.635	107.914	71.8802	3	841
143	37	56.411	107.112	92.6053	1	3813
144	37	51.0094	107.882	110.405	1	1141
145	37	70.0755	0.589713	62.4666	1	1533
146	37	70.1356	6.96699	78.8076	1	227
147	12	62.1757	14.1351	78.9866	1	3779
148	37	67.5395	26.7674	19.4505	1	1921
149	12	62.0556	39.9858	4.13216	1	741
150	37	63.9858	54.3612	58.5324	1	3997
151	12	70.9302	61.5341	31.8172	1	967
152	37	64.4323	67.7977	38.9119	1	4047
153	12	64.3704	61.8798	49.8656	1	7
154	12	68.1595	93.8473	85.494	1	625
155	12	69.2803	112.549	40.0276	1	1461
156	37	68.5296	108.173	66.4646	1	1833
157	12	77.7785	6.59843	13.8344	1	557
158	12	77.5338	6.7639	10.9794	1	1673
159	12	77.2891	6.92936	8.12449	1	113
160	12	82.2307	4.52625	21.9893	1	199
161	12	84.9842	9.8781	26.3917	1	1041
162	12	84.7396	10.0436	23.5368	1	1053
163	12	84.4949	10.209	20.6818	1	3855
164	12	78.7572	5.93656	25.2542	1	3807
165	12	80.5929	9.50446	28.1892	1	1793
166	12	76.1407	11.5766	20.0343	1	547
167	12	85.2289	9.71263	29.2467	1	3837
168	12	83.5291	7.51886	62.4486	1	3803
169	37	85.4834	0.497171	72.4843	1	529
170	12	83.3705	15.3094	10.9745	1	445
171	12	85.267	16.4315	23.8618	1	441
172	12	77.2424	15.6409	14.4044	1	3923
173	37	82.3489	22.0167	76.3651	1	881
174	37	73.365	16.5132	79.9532	1	1379
175	183	80.3637	30.7123	10.6724	3	1423
176	183	78.632	32.0048	10.2332	3	1423
177	183	77.1953	33.6628	10.4545	3	1423
178	183	76.2475	35.4623	11.3062	3	1423
179	183	78.3662	35.9356	13.8982	3	1423
180	183	80.0588	33.0718	12.7269	3	1423
181	183	80.0588	37.1068	16.7619	3	1423
182	183	82.7974	34.9669	17.3606	3	1423
183	183	82.7974	32.4731	14.8669	3	1423
184	37	83.5005	34.2417	21.2138	1	47
185	37	76.2947	34.0687	84.9456	1	767
186	12	81.2587	36.5021	105.542	1	979
187	12	81.014	36.6676	102.687	1	1255
188	12	85.5043	41.3143	105.457	1	1941
189	12	77.8842	42.1855	113.375	1	1715
190	12	77.6395	42.351	110.52	1	501
191	12	76.9055	42.8474	101.955	1	1349
192	12	81.3718	47.0409	11.5421	1	999
193	12	77.31	44.5091	4.52971	1	1333
194	37	81.3826	53.8857	43.8251	1	1863
195	12	79.4753	45.9189	113.455	1	1855
196	12	73.2863	48.6962	106.932	1	847
197	37	76.4512	65.1312	78.0682	1	4039
198	12	79.2982	74.9525	100.725	1	1943
199	37	78.0405	96.0405	28.2487	1	3789
200	12	80.4798	113.766	7.38947	1	695
201	12	82.621	114.722	23.1317	1	221
202	12	79.538	111.529	27.5391	1	427
203	183	99.8904	2.66254	1.74631	3	1707
204	12	96.3225	7.43112	18.0644	1	1631
205	12	92.3597	9.17236	15.6194	1	1125
206	12	87.2952	6.84931	18.8043	1	507
207	12	92.214	13.6109	17.3319	1	1113
208	12	87.1495	11.2878	20.5168	1	1131
209	12	91.5396	2.04366	55.6737	1	51
210	12	90.0475	2.58335	60.1612	1	1035
211	37	88.9374	1.18228	72.2208	1	1541
212	183	97.7505	3.26124	113.808	3	1707
213	183	95.2567	0.767474	113.808	3	1707
214	12	86.7972	22.6107	13.9895	1	275
215	12	86.5525	22.7762	11.1345	1	1327
216	37	88.8954	18.2481	44.6055	1	833
217	37	86.5232	30.4536	22.5515	1	1573
218	37	87.1661	32.1911	18.4854	1	1615
219	37	86.3904	35.484	17.2026	1	1957
220	37	86.3207	34.6329	24.0072	1	1137
221	37	98.8792	41.7191	43.5412	1	371
222	37	93.4098	38.1013	59.7845	1	55
223	301	92.8555	55.4283	13.9319	3	2015
224	301	92.0198	53.6762	12.4877	3	2015
225	37	88.5236	57.2748	96.7997	1	1065
226	12	97.2527	62.2253	16.8321	1	5
227	12	95.7607	62.765	21.3196	1	845
228	37	93.9948	71.1394	80.1854	1	955
229	12	100.343	69.4299	103.791	1	1299
230	12	98.2936	67.2207	103.1	1	1553
231	12	89.8133	81.8308	80.1805	1	1029
232	301	88.4065	80.9342	100.273	3	3981
233	301	86.5208	81.8151	99.0885	3	3981
234	37	92.4494	94.4733	24.6986	1	1077
235	37	94.2785	91.2887	32.9958	1	3891
236	413	92.1021	96.0014	102.55	3	2037
237	413	90.2941	96.0014	100.742	3	2037
238	413	92.1021	99.6174	102.55	3	2037
239	413	92.1021	97.8094	104.358	3	2037
240	413	88.4861	97.8094	104.358	3	2037
241	413	90.2941	99.6174	104.358	3	2037
242	413	88.4861	99.6174	102.55	3	2037
243	413	88.4861	97.8094	100.742	3	2037
244	413	88.4861	96.0014	102.55	3	2037
245	413	92.1021	97.8094	100.742	3	2037
246	413	90.2941	97.8094	102.55	3	2037
247	12	95.6684	89.8059	111.725	1	753
248	12	94.6049	92.4605	111.97	1	1601
249	12	89.2957	90.3029	112.3	1	1283
250	183	93.4959	111.373	1.4414	3	1707
251	183	94.7884	110.934	3.17304	3	1707
252	183	96.4464	111.155	4.60977	3	1707
253	183	98.2459	112.007	5.55754	3	1707
254	183	98.7192	114.599	3.43887	3	1707
255	183	95.8554	113.428	1.74631	3	1707
256	37	95.69	100.462	55.8484	1	1625
257	37	113.604	6.15463	73.5388	1	37
258	37	100.741	16.0958	9.70883	1	1455
259	37	110.43	16.0054	27.5599	1	1375
260	37	100.895	15.9192	72.3062	1	617
261	37	112.485	38.6737	98.7354	1	2035
262	37	101.262	67.909	7.43958	1	1145
263	37	112.988	69.583	34.4508	1	793
264	37	107.273	70.2303	83.5621	1	1483
265	183	102.543	74.6034	7.98709	3	203
266	183	103.836	76.335	8.42623	3	203
267	183	105.494	77.7718	8.20498	3	203
268	183	107.293	78.7195	7.35324	3	203
269	183	107.767	76.6008	4.76128	3	203
270	183	108.938	74.9083	1.89751	3	203
271	183	106.798	72.1697	1.29882	3	203
272	183	104.304	72.1697	3.79258	3	203
273	183	104.903	74.9083	5.9325	3	203
274	37	106.49	72.7511	4.83579	1	3897
275	37	100.832	71.9408	3.04995	1	1405
276	37	104.343	76.4697	2.012	1	787
277	37	107.332	72.3213	43.8062	1	3861
278	37	112.632	83.9614	81.9326	1	941
279	37	107.413	75.3256	92.6753	1	1211
280	37	112.167	102.508	85.6659	1	1021
ITEM: TIMESTEP
6.03466
ITEM: NUMBER OF ATOMS
138
ITEM: BOX BOUNDS
0	114.8
0	114.8
0	114.8