ITEM: TIMESTEP
0
ITEM: NUMBER OF ATOMS
0
ITEM: BOX BOUNDS
0	229.6
0	229.6
0	229.6
ITEM: ATOMS id type x y z defect iddef
ITEM: TIMESTEP
6.53241
ITEM: NUMBER OF ATOMS
0
ITEM: BOX BOUNDS
0	229.6
0	229.6
0	229.6
ITEM: ATOMS id type x y z defect iddef
ITEM: TIMESTEP
11.0816
ITEM: NUMBER OF ATOMS
0
ITEM: BOX BOUNDS
0	229.6
0	229.6
0	229.6
ITEM: ATOMS id type x y z defect iddef
ITEM: TIMESTEP
20.3666
ITEM: NUMBER OF ATOMS
12
ITEM: BOX BOUNDS
0	229.6
0	229.6
0	229.6
ITEM: ATOMS id type x y z defect iddef
1	12	90.4532	112.741	128.117	1	1003
2	37	92.7035	106.29	137.343	1	1009
3	37	121.676	67.3726	46.0769	1	985
4	37	115.801	88.2601	35.7832	1	991
5	12	131.158	68.3131	52.4811	1	967
6	12	128.123	84.1043	27.1637	1	979
7	12	123.903	94.6076	30.6982	1	973
8	37	139.43	83.8559	25.1942	1	997
9	37	149.909	208.647	113.73	1	961
10	12	152.84	211.262	124.517	1	955
11	37	182.842	139.374	194.832	1	1021
12	12	185.525	150.263	197.289	1	1015
ITEM: TIMESTEP
30.3117
ITEM: NUMBER OF ATOMS
20
ITEM: BOX BOUNDS
0	229.6
0	229.6
0	229.6
ITEM: ATOMS id type x y z defect iddef
1	12	71.4416	77.9156	101.081	1	931
2	12	69.3551	136.61	58.4284	1	919
3	37	74.8938	128.671	52.2574	1	925
4	12	69.9337	209.974	28.8649	1	907
5	37	81.9873	73.3796	101.138	1	937
6	12	90.4532	112.741	128.117	1	1003
7	37	78.1252	215.667	34.546	1	913
8	37	92.7035	106.29	137.343	1	1009
9	37	121.676	67.3726	46.0769	1	985
10	37	115.801	88.2601	35.7832	1	991
11	12	131.158	68.3131	52.4811	1	967
12	12	128.123	84.1043	27.1637	1	979
13	12	123.903	94.6076	30.6982	1	973
14	37	139.43	83.8559	25.1942	1	997
15	37	149.909	208.647	113.73	1	961
16	12	152.84	211.262	124.517	1	955
17	37	182.842	139.374	194.832	1	1021
18	37	184.199	73.9798	98.4758	1	949
19	12	188.002	77.8416	108.596	1	943
20	12	185.525	150.263	197.289	1	1015
ITEM: TIMESTEP
42.537
ITEM: NUMBER OF ATOMS
28
ITEM: BOX BOUNDS
0	229.6
0	229.6
0	229.6
ITEM: ATOMS id type x y z defect iddef
1	12	71.4416	77.9156	101.081	1	931
2	12	69.3551	136.61	58.4284	1	919
3	37	74.8938	128.671	52.2574	1	925
4	12	69.9337	209.974	28.8649	1	907
5	37	81.9873	73.3796	101.138	1	937
6	12	90.4532	112.741	128.117	1	1003
7	37	78.1252	215.667	34.546	1	913
8	37	92.7035	106.29	137.343	1	1009
9	37	122.119	57.4414	68.0523	1	877
10	37	121.676	67.3726	46.0769	1	985
11	12	115.385	65.5936	63.5814	1	871
12	37	115.801	88.2601	35.7832	1	991
13	37	112.975	108.47	13.2374	1	889
14	12	131.158	68.3131	52.4811	1	967
15	12	128.123	84.1043	27.1637	1	979
16	12	123.903	94.6076	30.6982	1	973
17	12	123.809	108.774	9.45181	1	883
18	37	139.43	83.8559	25.1942	1	997
19	37	147.302	117.527	88.0785	1	865
20	12	147.085	127.146	81.8159	1	859
21	12	146.834	167.962	166.776	1	895
22	37	149.909	208.647	113.73	1	961
23	12	152.84	211.262	124.517	1	955
24	37	157.143	168.832	161.799	1	901
25	37	182.842	139.374	194.832	1	1021
26	37	184.199	73.9798	98.4758	1	949
27	12	188.002	77.8416	108.596	1	943
28	12	185.525	150.263	197.289	1	1015
ITEM: TIMESTEP
51.3292
ITEM: NUMBER OF ATOMS
42
ITEM: BOX BOUNDS
0	229.6
0	229.6
0	229.6
ITEM: ATOMS id type x y z defect iddef
1	12	55.9147	84.1093	104.326	1	799
2	37	58.9004	92.5111	97.0948	1	805
3	12	71.4416	77.9156	101.081	1	931
4	12	69.3551	136.61	58.4284	1	919
5	37	74.8938	128.671	52.2574	1	925
6	12	69.9337	209.974	28.8649	1	907
7	37	81.9873	73.3796	101.138	1	937
8	12	90.4532	112.741	128.117	1	1003
9	37	78.1252	215.667	34.546	1	913
10	37	92.7035	106.29	137.343	1	1009
11	37	100.617	163.956	63.0108	1	853
12	12	106.04	169.551	54.5798	1	847
13	37	122.119	57.4414	68.0523	1	877
14	37	121.676	67.3726	46.0769	1	985
15	12	115.385	65.5936	63.5814	1	871
16	37	115.801	88.2601	35.7832	1	991
17	37	112.975	108.47	13.2374	1	889
18	37	115.774	150.454	60.2664	1	835
19	12	120.192	160.924	58.6378	1	817
20	12	117.989	161.229	54.9184	1	823
21	37	121.561	171.05	59.6703	1	841
22	12	131.158	68.3131	52.4811	1	967
23	12	128.123	84.1043	27.1637	1	979
24	12	123.903	94.6076	30.6982	1	973
25	12	123.809	108.774	9.45181	1	883
26	12	137.106	164.379	65.5592	1	811
27	37	139.43	83.8559	25.1942	1	997
28	37	147.302	117.527	88.0785	1	865
29	12	147.085	127.146	81.8159	1	859
30	37	138.701	168.365	76.2063	1	829
31	12	146.834	167.962	166.776	1	895
32	37	149.909	208.647	113.73	1	961
33	12	152.84	211.262	124.517	1	955
34	37	165.697	84.1253	99.4076	1	793
35	37	157.143	168.832	161.799	1	901
36	12	173.244	75.5875	94.7174	1	763
37	37	182.842	139.374	194.832	1	1021
38	37	184.199	73.9798	98.4758	1	949
39	37	185.16	86.1192	91.6335	1	781
40	12	184.84	88.31	102.898	1	769
41	12	188.002	77.8416	108.596	1	943
42	12	185.525	150.263	197.289	1	1015
ITEM: TIMESTEP
63.9128
ITEM: NUMBER OF ATOMS
44
ITEM: BOX BOUNDS
0	229.6
0	229.6
0	229.6
ITEM: ATOMS id type x y z defect iddef
1	12	13.3185	164.562	212.046	1	787
2	37	7.23661	171.103	219.258	1	775
3	12	55.9147	84.1093	104.326	1	799
4	37	58.9004	92.5111	97.0948	1	805
5	12	71.4416	77.9156	101.081	1	931
6	12	69.3551	136.61	58.4284	1	919
7	37	74.8938	128.671	52.2574	1	925
8	12	69.9337	209.974	28.8649	1	907
9	37	81.9873	73.3796	101.138	1	937
10	12	90.4532	112.741	128.117	1	1003
11	37	78.1252	215.667	34.546	1	913
12	37	92.7035	106.29	137.343	1	1009
13	37	100.617	163.956	63.0108	1	853
14	12	106.04	169.551	54.5798	1	847
15	37	122.119	57.4414	68.0523	1	877
16	37	121.676	67.3726	46.0769	1	985
17	12	115.385	65.5936	63.5814	1	871
18	37	115.801	88.2601	35.7832	1	991
19	37	112.975	108.47	13.2374	1	889
20	37	115.774	150.454	60.2664	1	835
21	12	120.192	160.924	58.6378	1	817
22	12	117.989	161.229	54.9184	1	823
23	37	121.561	171.05	59.6703	1	841
24	12	131.158	68.3131	52.4811	1	967
25	12	128.123	84.1043	27.1637	1	979
26	12	123.903	94.6076	30.6982	1	973
27	12	123.809	108.774	9.45181	1	883
28	12	137.106	164.379	65.5592	1	811
29	37	139.43	83.8559	25.1942	1	997
30	37	147.302	117.527	88.0785	1	865
31	12	147.085	127.146	81.8159	1	859
32	37	138.701	168.365	76.2063	1	829
33	12	146.834	167.962	166.776	1	895
34	37	149.909	208.647	113.73	1	961
35	12	152.84	211.262	124.517	1	955
36	37	165.697	84.1253	99.4076	1	793
37	37	157.143	168.832	161.799	1	901
38	12	173.244	75.5875	94.7174	1	763
39	37	182.842	139.374	194.832	1	1021
40	37	184.199	73.9798	98.4758	1	949
41	37	185.16	86.1192	91.6335	1	781
42	12	184.84	88.31	102.898	1	769
43	12	188.002	77.8416	108.596	1	943
44	12	185.525	150.263	197.289	1	1015
ITEM: TIMESTEP
72.2226
ITEM: NUMBER OF ATOMS
60
ITEM: BOX BOUNDS
0	229.6
0	229.6
0	229.6
ITEM: ATOMS id type x y z defect iddef
1	12	13.3185	164.562	212.046	1	787
2	37	7.23661	171.103	219.258	1	775
3	12	55.9147	84.1093	104.326	1	799
4	37	58.9004	92.5111	97.0948	1	805
5	12	71.4416	77.9156	101.081	1	931
6	12	69.3551	136.61	58.4284	1	919
7	37	74.8938	128.671	52.2574	1	925
8	12	69.9337	209.974	28.8649	1	907
9	37	81.9873	73.3796	101.138	1	937
10	12	90.4532	112.741	128.117	1	1003
11	37	78.1252	215.667	34.546	1	913
12	37	92.7035	106.29	137.343	1	1009
13	37	100.617	163.956	63.0108	1	853
14	12	106.04	169.551	54.5798	1	847
15	37	122.119	57.4414	68.0523	1	877
16	37	121.676	67.3726	46.0769	1	985
17	12	115.385	65.5936	63.5814	1	871
18	37	115.801	88.2601	35.7832	1	991
19	37	112.975	108.47	13.2374	1	889
20	37	115.774	150.454	60.2664	1	835
21	12	120.192	160.924	58.6378	1	817
22	12	117.989	161.229	54.9184	1	823
23	37	121.561	171.05	59.6703	1	841
24	12	131.158	68.3131	52.4811	1	967
25	12	131.31	65.2949	94.9411	1	751
26	37	127.838	75.948	97.4406	1	757
27	12	128.123	84.1043	27.1637	1	979
28	12	123.903	94.6076	30.6982	1	973
29	37	134.227	105.762	89.8963	1	667
30	12	129.138	95.6787	91.9485	1	733
31	12	123.809	108.774	9.45181	1	883
32	12	137.106	164.379	65.5592	1	811
33	37	151.756	57.3087	112.448	1	727
34	12	145.997	68.6656	122.786	1	661
35	12	147.202	72.6378	144.526	1	949
36	37	139.43	83.8559	25.1942	1	997
37	37	149.837	81.227	95.5775	1	685
38	37	140.78	81.92	146.621	1	691
39	37	147.302	117.527	88.0785	1	865
40	12	147.085	127.146	81.8159	1	859
41	37	138.701	168.365	76.2063	1	829
42	12	146.834	167.962	166.776	1	895
43	37	149.909	208.647	113.73	1	961
44	12	152.84	211.262	124.517	1	955
45	12	156.201	74.2755	83.3186	1	655
46	12	168.161	70.8816	89.384	1	721
47	37	158.701	67.2673	92.061	1	673
48	37	155.091	65.4702	116.551	1	679
49	37	165.697	84.1253	99.4076	1	793
50	37	157.143	168.832	161.799	1	901
51	12	169.009	52.4856	99.6808	1	739
52	37	170.852	60.0219	108.142	1	745
53	12	178.21	69.4106	90.7589	1	697
54	12	169.616	69.4413	93.6808	1	715
55	37	175.458	87.3907	110.134	1	703
56	37	182.842	139.374	194.832	1	1021
57	37	185.16	86.1192	91.6335	1	781
58	12	184.84	88.31	102.898	1	769
59	12	188.002	77.8416	108.596	1	943
60	12	185.525	150.263	197.289	1	1015
ITEM: TIMESTEP
80.4338
ITEM: NUMBER OF ATOMS
62
ITEM: BOX BOUNDS
0	229.6
0	229.6
0	229.6
ITEM: ATOMS id type x y z defect iddef
1	12	13.3185	164.562	212.046	1	787
2	37	7.23661	171.103	219.258	1	775
3	12	55.9147	84.1093	104.326	1	799
4	37	58.9004	92.5111	97.0948	1	805
5	12	71.4416	77.9156	101.081	1	931
6	12	69.3551	136.61	58.4284	1	919
7	37	74.8938	128.671	52.2574	1	925
8	12	69.9337	209.974	28.8649	1	907
9	37	81.9873	73.3796	101.138	1	937
10	12	90.4532	112.741	128.117	1	1003
11	37	78.1252	215.667	34.546	1	913
12	37	92.7035	106.29	137.343	1	1009
13	37	100.617	163.956	63.0108	1	853
14	12	106.04	169.551	54.5798	1	847
15	37	122.119	57.4414	68.0523	1	877
16	37	121.676	67.3726	46.0769	1	985
17	12	115.385	65.5936	63.5814	1	871
18	37	115.801	88.2601	35.7832	1	991
19	37	112.975	108.47	13.2374	1	889
20	37	115.774	150.454	60.2664	1	835
21	37	120.28	142.46	96.8389	1	709
22	12	120.192	160.924	58.6378	1	817
23	12	117.989	161.229	54.9184	1	823
24	37	121.561	171.05	59.6703	1	841
25	12	131.158	68.3131	52.4811	1	967
26	12	131.31	65.2949	94.9411	1	751
27	37	127.838	75.948	97.4406	1	757
28	12	128.123	84.1043	27.1637	1	979
29	12	123.903	94.6076	30.6982	1	973
30	37	134.227	105.762	89.8963	1	667
31	12	129.138	95.6787	91.9485	1	733
32	12	123.809	108.774	9.45181	1	883
33	12	128.782	146.876	90.5145	1	763
34	12	137.106	164.379	65.5592	1	811
35	37	151.756	57.3087	112.448	1	727
36	12	145.997	68.6656	122.786	1	661
37	12	147.202	72.6378	144.526	1	949
38	37	139.43	83.8559	25.1942	1	997
39	37	149.837	81.227	95.5775	1	685
40	37	140.78	81.92	146.621	1	691
41	37	147.302	117.527	88.0785	1	865
42	12	147.085	127.146	81.8159	1	859
43	37	138.701	168.365	76.2063	1	829
44	12	146.834	167.962	166.776	1	895
45	37	149.909	208.647	113.73	1	961
46	12	152.84	211.262	124.517	1	955
47	12	156.201	74.2755	83.3186	1	655
48	12	168.161	70.8816	89.384	1	721
49	37	158.701	67.2673	92.061	1	673
50	37	155.091	65.4702	116.551	1	679
51	37	165.697	84.1253	99.4076	1	793
52	37	157.143	168.832	161.799	1	901
53	12	169.009	52.4856	99.6808	1	739
54	37	170.852	60.0219	108.142	1	745
55	12	178.21	69.4106	90.7589	1	697
56	12	169.616	69.4413	93.6808	1	715
57	37	175.458	87.3907	110.134	1	703
58	37	182.842	139.374	194.832	1	1021
59	37	185.16	86.1192	91.6335	1	781
60	12	184.84	88.31	102.898	1	769
61	12	188.002	77.8416	108.596	1	943
62	12	185.525	150.263	197.289	1	1015
ITEM: TIMESTEP
92.5216
ITEM: NUMBER OF ATOMS
70
ITEM: BOX BOUNDS
0	229.6
0	229.6
0	229.6
ITEM: ATOMS id type x y z defect iddef
1	12	13.3185	164.562	212.046	1	787
2	37	7.23661	171.103	219.258	1	775
3	12	2.17816	216.385	110.234	1	643
4	37	11.3599	216.514	117.124	1	649
5	12	55.9147	84.1093	104.326	1	799
6	37	58.9004	92.5111	97.0948	1	805
7	12	71.4416	77.9156	101.081	1	931
8	12	69.3551	136.61	58.4284	1	919
9	37	74.8938	128.671	52.2574	1	925
10	12	69.9337	209.974	28.8649	1	907
11	37	81.9873	73.3796	101.138	1	937
12	12	90.4532	112.741	128.117	1	1003
13	37	78.1252	215.667	34.546	1	913
14	37	92.7035	106.29	137.343	1	1009
15	37	100.617	163.956	63.0108	1	853
16	12	106.04	169.551	54.5798	1	847
17	37	122.119	57.4414	68.0523	1	877
18	37	121.676	67.3726	46.0769	1	985
19	12	115.385	65.5936	63.5814	1	871
20	37	115.801	88.2601	35.7832	1	991
21	37	112.975	108.47	13.2374	1	889
22	37	115.774	150.454	60.2664	1	835
23	37	120.28	142.46	96.8389	1	709
24	12	120.192	160.924	58.6378	1	817
25	12	117.989	161.229	54.9184	1	823
26	37	121.561	171.05	59.6703	1	841
27	12	131.158	68.3131	52.4811	1	967
28	12	131.31	65.2949	94.9411	1	751
29	37	127.838	75.948	97.4406	1	757
30	12	128.123	84.1043	27.1637	1	979
31	12	123.903	94.6076	30.6982	1	973
32	37	134.227	105.762	89.8963	1	667
33	12	129.138	95.6787	91.9485	1	733
34	12	123.809	108.774	9.45181	1	883
35	37	122.672	122.211	223.195	1	625
36	37	135.143	135.767	18.0289	1	637
37	12	128.599	131.628	220.368	1	607
38	12	130.668	134.893	223.772	1	613
39	12	135.726	147.213	18.6969	1	619
40	12	128.782	146.876	90.5145	1	763
41	12	137.106	164.379	65.5592	1	811
42	37	151.756	57.3087	112.448	1	727
43	12	145.997	68.6656	122.786	1	661
44	12	147.202	72.6378	144.526	1	949
45	37	139.43	83.8559	25.1942	1	997
46	37	149.837	81.227	95.5775	1	685
47	37	140.78	81.92	146.621	1	691
48	37	147.302	117.527	88.0785	1	865
49	12	147.085	127.146	81.8159	1	859
50	37	139.448	129.058	228.317	1	631
51	37	138.701	168.365	76.2063	1	829
52	12	146.834	167.962	166.776	1	895
53	37	149.909	208.647	113.73	1	961
54	12	152.84	211.262	124.517	1	955
55	12	156.201	74.2755	83.3186	1	655
56	12	168.161	70.8816	89.384	1	721
57	37	158.701	67.2673	92.061	1	673
58	37	155.091	65.4702	116.551	1	679
59	37	165.697	84.1253	99.4076	1	793
60	37	157.143	168.832	161.799	1	901
61	12	169.009	52.4856	99.6808	1	739
62	37	170.852	60.0219	108.142	1	745
63	12	178.21	69.4106	90.7589	1	697
64	12	169.616	69.4413	93.6808	1	715
65	37	175.458	87.3907	110.134	1	703
66	37	182.842	139.374	194.832	1	1021
67	37	185.16	86.1192	91.6335	1	781
68	12	184.84	88.31	102.898	1	769
69	12	188.002	77.8416	108.596	1	943
70	12	185.525	150.263	197.289	1	1015
ITEM: TIMESTEP
102.479
ITEM: NUMBER OF ATOMS
84
ITEM: BOX BOUNDS
0	229.6
0	229.6
0	229.6
ITEM: ATOMS id type x y z defect iddef
1	12	13.3185	164.562	212.046	1	787
2	37	7.23661	171.103	219.258	1	775
3	12	2.17816	216.385	110.234	1	643
4	37	11.3599	216.514	117.124	1	649
5	12	41.1093	124.281	10.8497	1	553
6	37	37.4743	132.039	18.4907	1	595
7	37	38.0338	127.187	190.887	1	589
8	12	33.848	126.151	201.527	1	547
9	12	41.6888	146.036	177.917	1	541
10	37	37.4053	150.945	187.369	1	583
11	12	37.977	155.989	212.982	1	523
12	37	42.3725	155.931	223.587	1	565
13	12	55.9147	84.1093	104.326	1	799
14	37	58.9004	92.5111	97.0948	1	805
15	12	57.7233	96.9056	226.308	1	535
16	37	49.9343	102.842	220.318	1	577
17	12	71.4416	77.9156	101.081	1	931
18	12	61.9048	116.262	174.342	1	559
19	12	69.3551	136.61	58.4284	1	919
20	37	74.8938	128.671	52.2574	1	925
21	37	63.7431	123.05	183.416	1	601
22	12	69.9337	209.974	28.8649	1	907
23	37	81.9873	73.3796	101.138	1	937
24	12	90.4532	112.741	128.117	1	1003
25	12	84.6275	121.039	212.496	1	529
26	37	86.2725	111.813	205.866	1	571
27	37	78.1252	215.667	34.546	1	913
28	37	92.7035	106.29	137.343	1	1009
29	37	100.617	163.956	63.0108	1	853
30	12	106.04	169.551	54.5798	1	847
31	37	122.119	57.4414	68.0523	1	877
32	37	121.676	67.3726	46.0769	1	985
33	12	115.385	65.5936	63.5814	1	871
34	37	115.801	88.2601	35.7832	1	991
35	37	112.975	108.47	13.2374	1	889
36	37	115.774	150.454	60.2664	1	835
37	37	120.28	142.46	96.8389	1	709
38	12	120.192	160.924	58.6378	1	817
39	12	117.989	161.229	54.9184	1	823
40	37	121.561	171.05	59.6703	1	841
41	12	131.158	68.3131	52.4811	1	967
42	12	131.31	65.2949	94.9411	1	751
43	37	127.838	75.948	97.4406	1	757
44	12	128.123	84.1043	27.1637	1	979
45	12	123.903	94.6076	30.6982	1	973
46	37	134.227	105.762	89.8963	1	667
47	12	129.138	95.6787	91.9485	1	733
48	12	123.809	108.774	9.45181	1	883
49	37	122.672	122.211	223.195	1	625
50	37	135.143	135.767	18.0289	1	637
51	12	128.599	131.628	220.368	1	607
52	12	130.668	134.893	223.772	1	613
53	12	135.726	147.213	18.6969	1	619
54	12	128.782	146.876	90.5145	1	763
55	12	137.106	164.379	65.5592	1	811
56	37	151.756	57.3087	112.448	1	727
57	12	145.997	68.6656	122.786	1	661
58	12	147.202	72.6378	144.526	1	949
59	37	139.43	83.8559	25.1942	1	997
60	37	149.837	81.227	95.5775	1	685
61	37	140.78	81.92	146.621	1	691
62	37	147.302	117.527	88.0785	1	865
63	12	147.085	127.146	81.8159	1	859
64	37	139.448	129.058	228.317	1	631
65	37	138.701	168.365	76.2063	1	829
66	12	146.834	167.962	166.776	1	895
67	37	149.909	208.647	113.73	1	961
68	12	152.84	211.262	124.517	1	955
69	12	156.201	74.2755	83.3186	1	655
70	12	168.161	70.8816	89.384	1	721
71	37	158.701	67.2673	92.061	1	673
72	37	155.091	65.4702	116.551	1	679
73	37	165.697	84.1253	99.4076	1	793
74	37	157.143	168.832	161.799	1	901
75	12	169.009	52.4856	99.6808	1	739
76	37	170.852	60.0219	108.142	1	745
77	12	178.21	69.4106	90.7589	1	697
78	12	169.616	69.4413	93.6808	1	715
79	37	175.458	87.3907	110.134	1	703
80	37	182.842	139.374	194.832	1	1021
81	37	185.16	86.1192	91.6335	1	781
82	12	184.84	88.31	102.898	1	769
83	12	188.002	77.8416	108.596	1	943
84	12	185.525	150.263	197.289	1	1015
ITEM: TIMESTEP
202.385
ITEM: NUMBER OF ATOMS
164
ITEM: BOX BOUNDS
0	229.6
0	229.6
0	229.6
ITEM: ATOMS id type x y z defect iddef
1	12	5.8958	4.96115	200.958	1	219
2	12	6.51585	29.6283	111.122	1	207
3	37	9.41283	33.4044	100.675	1	249
4	12	7.29394	42.9659	108.802	1	355
5	37	10.1179	67.079	89.9143	1	421
6	12	8.21476	75.2993	97.6986	1	373
7	12	5.23644	61.6668	115.117	1	349
8	12	13.4452	88.6889	135.22	1	75
9	12	2.97769	129.739	208.988	1	511
10	37	12.6721	129.567	215.135	1	517
11	12	13.3185	164.562	212.046	1	787
12	37	7.23661	171.103	219.258	1	775
13	12	2.17816	216.385	110.234	1	643
14	37	11.3599	216.514	117.124	1	649
15	12	7.0261	215.564	197.723	1	225
16	37	18.2122	48.072	107.829	1	243
17	413	28.2803	69.3818	87.4197	3	439
18	413	26.4723	69.3818	89.2277	3	439
19	37	16.2166	65.1265	92.1439	1	457
20	37	28.2098	78.6751	97.3653	1	451
21	37	15.5427	91.4833	104.841	1	493
22	12	22.8899	84.2417	109.878	1	487
23	37	22.7683	85.2678	140.979	1	69
24	12	26.6935	116.52	2.00732	1	195
25	37	23.4236	114.49	12.8228	1	201
26	37	43.3137	88.085	104.133	1	415
27	12	41.1093	124.281	10.8497	1	553
28	37	37.4743	132.039	18.4907	1	595
29	12	43.7554	125.429	122.325	1	27
30	37	33.1684	128.044	125.912	1	21
31	12	44.5229	135.83	185.705	1	279
32	37	44.5417	134.709	197.13	1	285
33	37	38.0338	127.187	190.887	1	589
34	12	33.848	126.151	201.527	1	547
35	12	41.6888	146.036	177.917	1	541
36	37	37.4053	150.945	187.369	1	583
37	37	41.9941	164.553	110.558	1	9
38	12	37.977	155.989	212.982	1	523
39	37	42.3725	155.931	223.587	1	565
40	12	42.0805	172.837	102.61	1	45
41	12	57.361	59.4742	13.9367	1	51
42	12	52.5383	47.6995	3.90387	1	57
43	37	56.2287	62.015	2.79879	1	63
44	12	56.1213	83.5577	117.555	1	499
45	12	45.9917	98.3682	99.7886	1	367
46	37	58.9004	92.5111	97.0948	1	805
47	12	57.7233	96.9056	226.308	1	535
48	37	49.9343	102.842	220.318	1	577
49	37	62.9227	54.3339	6.93674	1	81
50	12	74.0297	74.8244	130.192	1	709
51	12	71.4416	77.9156	101.081	1	931
52	37	66.7467	81.7788	135.704	1	123
53	12	61.9048	116.262	174.342	1	559
54	12	69.3551	136.61	58.4284	1	919
55	37	74.8938	128.671	52.2574	1	925
56	37	63.7431	123.05	183.416	1	601
57	12	68.4252	139.028	1.61692	1	2039
58	37	64.3753	146.546	223.545	1	2045
59	12	69.9337	209.974	28.8649	1	907
60	37	81.9503	70.4784	96.2214	1	505
61	37	81.9873	73.3796	101.138	1	937
62	12	78.2637	81.19	94.3605	1	799
63	12	90.4532	112.741	128.117	1	1003
64	12	84.6275	121.039	212.496	1	529
65	37	86.2725	111.813	205.866	1	571
66	37	84.7475	145.946	60.5261	1	159
67	37	78.1252	215.667	34.546	1	913
68	37	103.382	51.6954	19.0372	1	189
69	12	106.895	62.5881	19.932	1	183
70	37	92.7035	106.29	137.343	1	1009
71	12	102.668	142.385	41.588	1	129
72	12	95.7752	142.792	61.0055	1	117
73	37	95.3339	138.712	49.6197	1	171
74	37	100.617	163.956	63.0108	1	853
75	12	106.04	169.551	54.5798	1	847
76	37	122.119	57.4414	68.0523	1	877
77	37	121.676	67.3726	46.0769	1	985
78	12	115.385	65.5936	63.5814	1	871
79	37	115.801	88.2601	35.7832	1	991
80	37	112.975	108.47	13.2374	1	889
81	37	115.421	134.673	96.3488	1	165
82	37	115.774	150.454	60.2664	1	835
83	12	120.192	160.924	58.6378	1	817
84	12	117.989	161.229	54.9184	1	823
85	12	115.53	167.506	77.0241	1	105
86	12	115.741	165.207	91.5358	1	111
87	37	113.475	153.863	86.8654	1	177
88	12	112.649	162.274	94.6358	1	135
89	37	119.493	178.729	46.4068	1	141
90	37	121.561	171.05	59.6703	1	841
91	37	117.913	173.755	86.3544	1	147
92	12	131.158	68.3131	52.4811	1	967
93	12	131.31	65.2949	94.9411	1	751
94	37	127.838	75.948	97.4406	1	757
95	12	128.123	84.1043	27.1637	1	979
96	12	123.903	94.6076	30.6982	1	973
97	37	134.227	105.762	89.8963	1	667
98	12	129.138	95.6787	91.9485	1	733
99	37	132.963	100.757	142.967	1	33
100	12	123.809	108.774	9.45181	1	883
101	37	122.672	122.211	223.195	1	625
102	37	135.143	135.767	18.0289	1	637
103	12	128.599	131.628	220.368	1	607
104	12	130.668	134.893	223.772	1	613
105	12	135.726	147.213	18.6969	1	619
106	12	128.782	146.876	90.5145	1	763
107	12	137.106	164.379	65.5592	1	811
108	12	125.651	177.994	36.7461	1	99
109	37	126.197	168.98	94.402	1	153
110	37	151.756	57.3087	112.448	1	727
111	12	145.997	68.6656	122.786	1	661
112	12	147.202	72.6378	144.526	1	949
113	37	139.43	83.8559	25.1942	1	997
114	37	149.837	81.227	95.5775	1	685
115	37	140.78	81.92	146.621	1	691
116	12	139.622	119.551	4.24777	1	403
117	37	145.618	110.255	1.17758	1	213
118	37	147.302	117.527	88.0785	1	865
119	12	147.085	127.146	81.8159	1	859
120	37	139.448	129.058	228.317	1	631
121	37	138.701	168.365	76.2063	1	829
122	12	146.834	167.962	166.776	1	895
123	37	149.909	208.647	113.73	1	961
124	12	152.84	211.262	124.517	1	955
125	12	156.201	74.2755	83.3186	1	655
126	12	168.161	70.8816	89.384	1	721
127	37	158.701	67.2673	92.061	1	673
128	37	155.091	65.4702	116.551	1	679
129	12	164.522	75.4325	131.63	1	15
130	37	165.697	84.1253	99.4076	1	793
131	37	155.708	79.3643	125.413	1	39
132	12	155.055	97.2518	146.378	1	3
133	37	157.143	168.832	161.799	1	901
134	12	169.009	52.4856	99.6808	1	739
135	37	170.852	60.0219	108.142	1	745
136	12	178.21	69.4106	90.7589	1	697
137	12	169.616	69.4413	93.6808	1	715
138	37	175.458	87.3907	110.134	1	703
139	12	183.124	82.2754	137.781	1	87
140	37	182.842	139.374	194.832	1	1021
141	12	197.995	60.0053	107.664	1	343
142	37	197.968	67.6145	99.0679	1	391
143	37	187.639	72.209	134.606	1	93
144	37	185.16	86.1192	91.6335	1	781
145	37	198.424	82.9872	98.5063	1	481
146	12	184.84	88.31	102.898	1	769
147	12	188.002	77.8416	108.596	1	943
148	12	185.525	150.263	197.289	1	1015
149	37	195.288	229.395	186.492	1	261
150	12	201.821	2.9234	195.398	1	231
151	12	210.077	59.9088	84.0112	1	379
152	12	208.502	79.5788	94.1915	1	469
153	37	206.757	79.8825	113.357	1	475
154	12	203.337	201.575	193.889	1	237
155	37	199.436	211.944	190.881	1	267
156	37	215.083	1.2818	199.937	1	273
157	37	214.708	56.7096	94.0169	1	427
158	37	223.794	55.5303	98.409	1	433
159	37	227.25	59.9594	123.562	1	397
160	12	225.211	66.7258	100.517	1	385
161	12	217.918	77.3154	112.566	1	463
162	12	216.104	107.133	115.87	1	361
163	37	225.283	109.614	122.302	1	409
164	37	226.866	218.736	192.579	1	255
ITEM: TIMESTEP
301.04
ITEM: NUMBER OF ATOMS
216
ITEM: BOX BOUNDS
0	229.6
0	229.6
0	229.6
ITEM: ATOMS id type x y z defect iddef
1	12	11.9654	9.0463	174.553	1	1793
2	37	12.5659	6.72139	183.921	1	1805
3	12	5.8958	4.96115	200.958	1	219
4	12	14.5223	19.5424	29.8277	1	201
5	37	8.42225	29.1715	28.4641	1	1757
6	12	6.51585	29.6283	111.122	1	207
7	37	7.86436	16.1972	182.543	1	1835
8	12	8.17771	16.6486	202.035	1	1799
9	37	9.41283	33.4044	100.675	1	249
10	12	7.29394	42.9659	108.802	1	355
11	37	10.1179	67.079	89.9143	1	421
12	12	8.21476	75.2993	97.6986	1	373
13	12	5.23644	61.6668	115.117	1	349
14	12	1.62231	77.5169	93.301	1	1763
15	12	13.4452	88.6889	135.22	1	75
16	12	2.97769	129.739	208.988	1	511
17	37	12.6721	129.567	215.135	1	517
18	12	2.1431	162.925	214.191	1	2009
19	12	13.3185	164.562	212.046	1	787
20	37	9.36412	178.944	222.872	1	2015
21	37	7.23661	171.103	219.258	1	775
22	12	2.17816	216.385	110.234	1	643
23	37	11.3599	216.514	117.124	1	649
24	12	7.0261	215.564	197.723	1	225
25	12	16.047	1.94316	174.08	1	1787
26	37	16.5846	24.434	201.325	1	1829
27	37	18.2122	48.072	107.829	1	243
28	413	28.2803	69.3818	87.4197	3	439
29	413	26.4723	69.3818	89.2277	3	439
30	37	16.2166	65.1265	92.1439	1	457
31	37	28.2098	78.6751	97.3653	1	451
32	37	15.5427	91.4833	104.841	1	493
33	12	22.8899	84.2417	109.878	1	487
34	37	22.7683	85.2678	140.979	1	69
35	37	29.3479	109.307	211.762	1	385
36	12	24.4475	112.247	221.718	1	1751
37	12	17.3901	172.477	217.817	1	2003
38	37	43.3137	88.085	104.133	1	415
39	12	41.1093	124.281	10.8497	1	553
40	37	42.0877	122.743	28.8251	1	1811
41	12	43.7554	125.429	122.325	1	27
42	37	33.1684	128.044	125.912	1	21
43	12	44.5229	135.83	185.705	1	279
44	37	44.5417	134.709	197.13	1	285
45	37	38.0338	127.187	190.887	1	589
46	12	33.848	126.151	201.527	1	547
47	12	41.6888	146.036	177.917	1	541
48	37	37.4053	150.945	187.369	1	583
49	37	41.9941	164.553	110.558	1	9
50	12	37.977	155.989	212.982	1	523
51	37	42.3725	155.931	223.587	1	565
52	12	42.0805	172.837	102.61	1	45
53	12	57.361	59.4742	13.9367	1	51
54	12	52.5383	47.6995	3.90387	1	57
55	37	56.2287	62.015	2.79879	1	63
56	12	56.1213	83.5577	117.555	1	499
57	12	45.9917	98.3682	99.7886	1	367
58	37	58.9004	92.5111	97.0948	1	805
59	12	57.7233	96.9056	226.308	1	535
60	37	49.9343	102.842	220.318	1	577
61	37	62.9227	54.3339	6.93674	1	81
62	12	74.0297	74.8244	130.192	1	709
63	12	71.4416	77.9156	101.081	1	931
64	37	66.7467	81.7788	135.704	1	123
65	12	61.9048	116.262	174.342	1	559
66	12	69.3551	136.61	58.4284	1	919
67	37	74.8938	128.671	52.2574	1	925
68	37	63.7431	123.05	183.416	1	601
69	12	68.4252	139.028	1.61692	1	2039
70	37	64.3753	146.546	223.545	1	2045
71	12	69.9337	209.974	28.8649	1	907
72	12	87.0205	23.941	98.0584	1	1817
73	37	81.9503	70.4784	96.2214	1	505
74	37	81.9873	73.3796	101.138	1	937
75	12	78.2637	81.19	94.3605	1	799
76	12	90.4532	112.741	128.117	1	1003
77	12	84.6275	121.039	212.496	1	529
78	37	86.2725	111.813	205.866	1	571
79	37	84.7475	145.946	60.5261	1	159
80	12	90.571	167.413	144.369	1	1937
81	12	84.6702	178.645	128.304	1	1931
82	37	82.7667	170.717	136.625	1	1949
83	37	86.1137	177.925	139.67	1	1943
84	37	78.1252	215.667	34.546	1	913
85	37	96.6378	14.4744	106.261	1	1823
86	37	103.382	51.6954	19.0372	1	189
87	12	106.895	62.5881	19.932	1	183
88	37	105.717	74.9861	155.067	1	1973
89	12	96.1105	77.4892	160.832	1	1961
90	37	107.129	86.751	158.979	1	1967
91	37	92.7035	106.29	137.343	1	1009
92	12	102.668	142.385	41.588	1	129
93	12	95.7752	142.792	61.0055	1	117
94	37	95.3339	138.712	49.6197	1	171
95	12	98.606	149.462	96.9831	1	1739
96	37	100.617	163.956	63.0108	1	853
97	12	106.04	169.551	54.5798	1	847
98	12	116.876	5.59449	194.254	1	595
99	37	119.97	9.28152	183.832	1	1841
100	37	122.119	57.4414	68.0523	1	877
101	37	121.676	67.3726	46.0769	1	985
102	12	115.385	65.5936	63.5814	1	871
103	37	115.801	88.2601	35.7832	1	991
104	12	109.274	95.7832	165.732	1	1955
105	37	112.975	108.47	13.2374	1	889
106	37	115.421	134.673	96.3488	1	165
107	37	115.774	150.454	60.2664	1	835
108	37	108.998	144.593	97.2999	1	1745
109	12	120.192	160.924	58.6378	1	817
110	12	117.989	161.229	54.9184	1	823
111	12	115.53	167.506	77.0241	1	105
112	12	115.741	165.207	91.5358	1	111
113	37	113.475	153.863	86.8654	1	177
114	12	112.649	162.274	94.6358	1	135
115	37	119.493	178.729	46.4068	1	141
116	37	121.561	171.05	59.6703	1	841
117	37	117.913	173.755	86.3544	1	147
118	12	131.158	68.3131	52.4811	1	967
119	12	131.31	65.2949	94.9411	1	751
120	37	127.838	75.948	97.4406	1	757
121	12	128.123	84.1043	27.1637	1	979
122	12	123.903	94.6076	30.6982	1	973
123	37	134.227	105.762	89.8963	1	667
124	12	129.138	95.6787	91.9485	1	733
125	37	132.963	100.757	142.967	1	33
126	12	123.809	108.774	9.45181	1	883
127	37	122.672	122.211	223.195	1	625
128	37	135.143	135.767	18.0289	1	637
129	12	128.599	131.628	220.368	1	607
130	12	130.668	134.893	223.772	1	613
131	12	135.726	147.213	18.6969	1	619
132	12	128.782	146.876	90.5145	1	763
133	12	137.106	164.379	65.5592	1	811
134	12	131.176	165.572	119.481	1	1727
135	12	125.651	177.994	36.7461	1	99
136	37	126.197	168.98	94.402	1	153
137	37	151.756	57.3087	112.448	1	727
138	12	145.997	68.6656	122.786	1	661
139	12	147.202	72.6378	144.526	1	949
140	37	139.43	83.8559	25.1942	1	997
141	37	149.837	81.227	95.5775	1	685
142	37	140.78	81.92	146.621	1	691
143	12	139.622	119.551	4.24777	1	403
144	37	145.618	110.255	1.17758	1	213
145	37	147.302	117.527	88.0785	1	865
146	12	147.085	127.146	81.8159	1	859
147	37	139.448	129.058	228.317	1	631
148	37	138.701	168.365	76.2063	1	829
149	37	139.491	164.207	111.684	1	1733
150	12	146.834	167.962	166.776	1	895
151	37	149.909	208.647	113.73	1	961
152	12	152.84	211.262	124.517	1	955
153	12	156.201	74.2755	83.3186	1	655
154	12	168.161	70.8816	89.384	1	721
155	37	158.701	67.2673	92.061	1	673
156	37	155.091	65.4702	116.551	1	679
157	12	164.522	75.4325	131.63	1	15
158	37	165.697	84.1253	99.4076	1	793
159	37	155.708	79.3643	125.413	1	39
160	12	155.055	97.2518	146.378	1	3
161	37	164.544	115.563	11.4843	1	1769
162	12	156.319	109.827	17.0748	1	1775
163	37	157.143	168.832	161.799	1	901
164	12	169.009	52.4856	99.6808	1	739
165	37	170.852	60.0219	108.142	1	745
166	12	178.21	69.4106	90.7589	1	697
167	12	169.616	69.4413	93.6808	1	715
168	37	182.43	82.1077	9.66942	1	1901
169	12	178.197	82.9491	20.3076	1	1859
170	37	175.458	87.3907	110.134	1	703
171	12	183.124	82.2754	137.781	1	87
172	37	182.842	139.374	194.832	1	1021
173	12	197.995	60.0053	107.664	1	343
174	37	197.968	67.6145	99.0679	1	391
175	37	187.639	72.209	134.606	1	93
176	37	191.878	76.6317	26.963	1	1907
177	12	188.383	79.7029	37.4577	1	1865
178	37	197.43	87.6897	57.1408	1	1895
179	37	185.16	86.1192	91.6335	1	781
180	37	198.424	82.9872	98.5063	1	481
181	12	184.84	88.31	102.898	1	769
182	12	188.002	77.8416	108.596	1	943
183	12	191.141	102.39	17.621	1	1847
184	37	188.804	101.387	28.816	1	1889
185	12	196.99	110.805	60.6494	1	1871
186	37	185.981	113.067	62.9906	1	1913
187	12	185.525	150.263	197.289	1	1015
188	37	195.288	229.395	186.492	1	261
189	12	201.821	2.9234	195.398	1	231
190	12	210.077	59.9088	84.0112	1	379
191	37	208.524	88.0849	29.6358	1	1919
192	12	209.087	77.2986	33.5255	1	1877
193	12	202.835	80.0287	50.5163	1	1853
194	12	208.502	79.5788	94.1915	1	469
195	37	206.757	79.8825	113.357	1	475
196	37	203.781	97.7495	5.09305	1	1925
197	12	199.478	105.952	227.912	1	1883
198	12	213.379	138.639	105.186	1	195
199	12	201.491	178.836	213.557	1	2027
200	37	202.724	171.573	222.362	1	2033
201	12	203.337	201.575	193.889	1	237