ITEM: TIMESTEP
0
ITEM: NUMBER OF ATOMS
4000
ITEM: BOX BOUNDS
-30	30
-30	30
-30	30
ITEM: ATOMS id type x y z defect iddef
1	37	0	-29.4457	-29.8409	1	8325
2	37	0	-28.7693	-28.3158	1	9327
3	37	0	-29.9208	-27.8901	1	10209
4	37	0	-29.169	-27.8913	1	4707
5	37	0	-28.6093	-27.4204	1	3411
6	37	0	-29.4408	-26.9255	1	15099
7	37	0	-28.8122	-25.5565	1	6417
8	37	0	-28.8298	-26.6349	1	2871
9	37	0	-28.5322	-26.3045	1	3951
10	37	0	-29.5454	-25.1956	1	11553
11	37	0	-29.0811	-25.2923	1	5739
12	37	0	-28.9384	-25.4614	1	6195
13	37	0	-28.661	-23.0049	1	10941
14	37	0	-28.562	-22.273	1	10071
15	37	0	-28.5423	-21.0826	1	5229
16	37	0	-28.8848	-20.6216	1	26319
17	37	0	-29.6395	-20.5981	1	1599
18	37	0	-29.445	-19.7886	1	955
19	37	0	-29.1445	-18.8618	1	27141
20	37	0	-29.7485	-18.5445	1	28611
21	37	0	-29.1714	-19.1165	1	31209
22	37	0	-28.8377	-19.2148	1	11751
23	37	0	-29.7739	-18.8154	1	13107
24	37	0	-29.1147	-17.2837	1	5031
25	37	0	-29.5004	-17.4242	1	175
26	37	0	-29.5844	-15.0679	1	10557
27	37	0	-29.3765	-16.0495	1	10659
28	37	0	-29.0815	-15.2065	1	5667
29	37	0	-29.1241	-15.1454	1	199
30	37	0	-29.4199	-13.9556	1	5067
31	37	0	-29.4506	-12.6179	1	8943
32	37	0	-28.6177	-12.0991	1	8037
33	37	0	-29.1407	-11.0527	1	31569
34	37	0	-28.6413	-11.431	1	32115
35	37	0	-28.8348	-10.6745	1	4875
36	37	0	-29.2906	-10.0868	1	3909
37	37	0	-29.0399	-9.01752	1	1221
38	37	0	-28.9332	-7.0107	1	29793
39	37	0	-29.7619	-7.15791	1	169
40	37	0	-28.9116	-4.69245	1	29733
41	37	0	-29.4759	-4.67283	1	1161
42	37	0	-29.3682	-3.50674	1	30975
43	37	0	-28.986	-3.75013	1	31161
44	37	0	-29.7474	-3.515	1	10779
45	37	0	-28.9569	-2.87032	1	14607
46	37	0	-28.8886	2.5742	1	27207
47	37	0	-28.6861	2.81324	1	29559
48	37	0	-28.9741	1.96883	1	31653
49	37	0	-28.8577	2.36964	1	11499
50	37	0	-29.2917	2.63798	1	5715
51	37	0	-28.7814	3.93209	1	28971
52	37	0	-28.9869	3.44311	1	31731
53	37	0	-29.4032	4.3167	1	32559
54	37	0	-28.6649	4.01892	1	12207
55	37	0	-28.9255	4.46787	1	14745
56	37	0	-28.6903	3.57248	1	3825
57	37	0	-29.8219	5.24707	1	15405
58	37	0	-28.8272	6.70486	1	26721
59	37	0	-29.8705	6.04426	1	28965
60	37	0	-28.5679	6.75725	1	31371
61	37	0	-28.7492	6.35819	1	9447
62	37	0	-29.3202	6.53544	1	14937
63	37	0	-28.7853	7.44398	1	5661
64	37	0	-29.6308	9.90256	1	27351
65	37	0	-28.8591	10.3207	1	29211
66	37	0	-29.3313	10.3934	1	8913
67	37	0	-29.7264	11.617	1	31479
68	37	0	-29.2117	10.5292	1	9315
69	37	0	-28.5135	10.8584	1	15057
70	37	0	-29.5614	11.4787	1	15723
71	37	0	-29.128	11.9621	1	4293
72	37	0	-28.7504	12.0656	1	8433
73	37	0	-29.4701	13.2577	1	3045
74	37	0	-28.8846	14.7818	1	28275
75	37	0	-29.9069	14.5907	1	30675
76	37	0	-28.6828	16.043	1	30075
77	37	0	-29.1714	16.0773	1	9543
78	37	0	-29.1089	15.2715	1	1869
79	37	0	-29.9018	15.5301	1	1971
80	37	0	-29.3478	17.8908	1	32715
81	37	0	-29.7786	18.1911	1	31593
82	37	0	-29.5575	19.0372	1	10221
83	37	0	-29.1238	19.3523	1	10851
84	37	0	-29.1162	18.449	1	2835
85	37	0	-29.1337	19.574	1	30603
86	37	0	-28.7985	22.3091	1	9957
87	37	0	-28.6527	21.0216	1	2841
88	37	0	-29.7791	21.0298	1	433
89	37	0	-29.9914	22.5998	1	27417
90	37	0	-28.5382	23.1586	1	3795
91	37	0	-29.6348	26.6664	1	10437
92	37	0	-28.6368	26.1051	1	13875
93	37	0	-29.1353	26.2738	1	5583
94	37	0	-29.7805	28.22	1	26727
95	37	0	-29.0311	27.8414	1	28797
96	37	0	-29.4326	28.1948	1	8499
97	37	0	-29.3182	27.9669	1	6687
98	37	0	-29.4179	29.7911	1	28377
99	37	0	-29.4062	29.8319	1	30567
100	37	0	-28.9044	29.1734	1	5289
101	37	0	-28.706	28.698	1	5319
102	37	0	-28.1128	-29.5768	1	27969
103	37	0	-27.3272	-29.5888	1	14241
104	37	0	-27.2612	-27.0697	1	29475
105	37	0	-27.8021	-27.075	1	13005
106	37	0	-27.8393	-27.1249	1	13695
107	37	0	-27.7717	-28.1696	1	13923
108	37	0	-28.42	-28.1378	1	13941
109	37	0	-27.7239	-26.0506	1	7305
110	37	0	-27.9634	-25.2305	1	26535
111	37	0	-27.0666	-24.9996	1	27129
112	37	0	-27.8969	-24.161	1	29625
113	37	0	-28.0831	-25.1608	1	32187
114	37	0	-28.3595	-24.4729	1	16185
115	37	0	-27.1479	-25.0165	1	1215
116	37	0	-27.5885	-23.2032	1	26919
117	37	0	-28.2531	-21.3783	1	31215
118	37	0	-27.1872	-21.676	1	5685
119	37	0	-27.2539	-21.0686	1	6945
120	37	0	-28.4998	-20.3592	1	28485
121	37	0	-28.3517	-20.6466	1	29715
122	37	0	-27.8102	-20.655	1	12495
123	37	0	-28.2432	-20.1858	1	7623
124	37	0	-28.1679	-20.2557	1	1659
125	37	0	-27.0451	-19.4025	1	2445
126	37	0	-28.4276	-18.266	1	1911
127	37	0	-28.3574	-17.5774	1	14703
128	37	0	-27.6123	-13.627	1	25863
129	37	0	-27.1043	-13.6396	1	8583
130	37	0	-27.1021	-12.3673	1	8421
131	37	0	-27.4065	-12.0448	1	1071
132	37	0	-27.4327	-11.3756	1	32655
133	37	0	-27.9641	-11.596	1	8721
134	37	0	-28.2494	-10.2923	1	26403
135	37	0	-27.068	-10.2882	1	11217
136	37	0	-28.0126	-9.26365	1	11565
137	37	0	-27.3131	-9.98026	1	4029
138	37	0	-27.7196	-10.4372	1	667
139	37	0	-27.9887	-7.91165	1	9417
140	37	0	-27.6574	-7.77878	1	5553
141	37	0	-27.8992	-6.00454	1	30171
142	37	0	-27.0918	-6.32155	1	13737
143	37	0	-28.3036	-5.08996	1	25755
144	37	0	-28.1539	-4.84743	1	27813
145	37	0	-27.2014	-5.97302	1	28077
146	37	0	-28.0279	-5.7233	1	28401
147	37	0	-28.0653	-1.53153	1	61
148	37	0	-27.8372	-0.134171	1	27639
149	37	0	-28.1468	-0.559216	1	29925
150	37	0	-28.4277	-0.484775	1	13551
151	37	0	-27.8528	-1.07253	1	14067
152	37	0	-28.0962	-0.561698	1	5499
153	37	0	-28.1769	0.6379	1	3171
154	37	0	-27.1267	2.25155	1	28293
155	37	0	-28.4442	2.55102	1	31737
156	37	0	-27.1949	2.88227	1	10581
157	37	0	-28.2787	2.67394	1	11085
158	37	0	-27.1057	4.33502	1	30135
159	37	0	-27.2566	3.37795	1	10095
160	37	0	-28.4127	4.86083	1	30699
161	37	0	-27.8673	4.57284	1	11661
162	37	0	-27.3123	5.50483	1	1611
163	37	0	-27.5808	7.3809	1	10605
164	37	0	-27.3285	7.50157	1	32259
165	37	0	-27.1085	8.64211	1	9063
166	37	0	-28.2557	8.94336	1	9561
167	37	0	-27.1416	8.01155	1	12693
168	37	0	-27.3996	9.45175	1	11799
169	37	0	-28.068	11.5967	1	32571
170	37	0	-28.0365	10.8941	1	14121
171	37	0	-28.49	11.5373	1	511
172	37	0	-28.0824	13.1995	1	25419
173	37	0	-27.1519	12.3962	1	32139
174	37	0	-27.6807	13.1153	1	10989
175	37	0	-27.1636	12.7096	1	5721
176	37	0	-27.2556	17.154	1	5961
177	37	0	-28.068	19.3253	1	29703
178	37	0	-28.3509	18.968	1	31911
179	37	0	-27.9028	20.5874	1	30159
180	37	0	-27.2206	20.7475	1	11235
181	37	0	-27.4643	20.8041	1	13299
182	37	0	-28.3942	19.6412	1	6261
183	37	0	-27.2518	22.3362	1	28527
184	37	0	-28.0909	21.6357	1	28671
185	37	0	-27.6563	21.5776	1	8547
186	37	0	-27.1147	23.0948	1	13701
187	37	0	-27.7775	23.9629	1	5571
188	37	0	-28.4396	23.7813	1	3423
189	37	0	-27.5757	23.126	1	3741
190	37	0	-27.0543	26.2162	1	3801
191	37	0	-28.0733	27.9914	1	28587
192	37	0	-28.2316	27.0415	1	30729
193	37	0	-27.0727	27.5002	1	10011
194	37	0	-28.3694	27.3977	1	15387
195	37	0	-27.2693	28.0491	1	15501
196	37	0	-28.202	28.6447	1	27321
197	37	0	-26.2085	-28.0507	1	25587
198	37	0	-25.6679	-28.352	1	4701
199	37	0	-25.8388	-27.6786	1	1461
200	37	0	-26.0538	-26.6729	1	13095
201	37	0	-25.5808	-25.3285	1	9081
202	37	0	-26.8485	-24.0382	1	9549
203	37	0	-26.2929	-24.536	1	10245
204	37	0	-26.9795	-24.4735	1	5655
205	37	0	-26.467	-22.946	1	14247
206	37	0	-26.3404	-22.693	1	2103
207	37	0	-26.9066	-21.5289	1	27921
208	37	0	-25.5428	-21.7513	1	14793
209	37	0	-26.1341	-20.5813	1	8907
210	37	0	-26.3973	-19.5282	1	10125
211	37	0	-26.84	-20.8023	1	10383
212	37	0	-26.0769	-20.7335	1	12405
213	37	0	-26.9995	-18.8816	1	28017
214	37	0	-26.5974	-18.8073	1	9717
215	37	0	-26.5751	-17.6871	1	30207
216	37	0	-26.8146	-17.9691	1	31527
217	37	0	-26.8281	-16.9023	1	11685
218	37	0	-26.1069	-16.6099	1	12945
219	37	0	-26.6634	-16.5507	1	16305
220	37	0	-25.7938	-16.9609	1	2349
221	37	0	-25.9656	-17.8483	1	601
222	37	0	-25.7643	-16.9813	1	799
223	37	0	-26.8947	-15.9745	1	30825
224	37	0	-26.747	-15.3858	1	12369
225	37	0	-26.7538	-15.6639	1	13863
226	37	0	-26.521	-15.6056	1	355
227	37	0	-25.8784	-15.894	1	883
228	37	0	-26.6335	-13.6844	1	28047
229	37	0	-25.6869	-14.1988	1	11073
230	37	0	-26.0848	-13.6611	1	5403
231	37	0	-26.9188	-12.3394	1	13197
232	37	0	-25.8631	-11.568	1	8691
233	37	0	-25.6295	-10.9617	1	9483
234	37	0	-26.0367	-11.7727	1	10755
235	37	0	-26.9533	-11.1767	1	13017
236	37	0	-26.6357	-10.4013	1	29205
237	37	0	-26.6912	-7.59973	1	2811
238	37	0	-26.7009	-6.61514	1	27729
239	37	0	-25.9069	-6.99453	1	8949
240	37	0	-26.462	-5.95006	1	32619
241	37	0	-25.665	-5.71603	1	7059
242	37	0	-26.4851	-3.53416	1	30405
243	37	0	-25.5127	-4.43324	1	7581
244	37	0	-26.3122	-2.83817	1	2265
245	37	0	-26.356	-0.0918103	1	31329
246	37	0	-25.8429	-0.16942	1	5109
247	37	0	-26.2697	0.101456	1	10467
248	37	0	-26.0046	0.750655	1	10797
249	37	0	-26.7592	2.51964	1	31311
250	37	0	-26.7873	2.67548	1	10401
251	37	0	-26.2861	2.58305	1	11355
252	37	0	-25.9547	3.34821	1	25953
253	37	0	-26.9625	3.92733	1	15783
254	37	0	-25.9704	5.43355	1	9945
255	37	0	-25.8592	5.10131	1	15633
256	37	0	-26.3092	6.28553	1	26943
257	37	0	-26.3703	7.4779	1	28617
258	37	0	-26.5084	6.00424	1	29913
259	37	0	-26.7277	6.3738	1	12795
260	37	0	-25.7052	7.3608	1	15201
261	37	0	-26.0743	8.37105	1	32529
262	37	0	-25.6783	8.12706	1	12957
263	37	0	-25.7772	8.12947	1	14277
264	37	0	-26.3633	8.85501	1	1335
265	37	0	-25.9457	10.1782	1	4971
266	37	0	-26.7256	11.6399	1	15837
267	37	0	-26.4748	12.7143	1	11433
268	37	0	-26.0702	14.0739	1	1365
269	37	0	-26.0762	16.2181	1	25989
270	37	0	-25.9761	15.0954	1	28005
271	37	0	-26.7049	15.6593	1	14061
272	37	0	-26.2561	15.8288	1	14445
273	37	0	-26.6479	15.1199	1	15375
274	37	0	-26.2623	16.8662	1	26523
275	37	0	-25.9248	18.4144	1	1293
276	37	0	-26.8972	23.0369	1	13209
277	37	0	-26.502	23.7245	1	16017
278	37	0	-25.9069	23.4087	1	6903
279	37	0	-25.8354	24.232	1	31317
280	37	0	-26.4513	24.2105	1	11427
281	37	0	-26.7905	25.1683	1	13515
282	37	0	-25.6417	24.3517	1	15417
283	37	0	-26.2418	29.276	1	31347
284	37	0	-25.8249	29.4718	1	9099
285	37	0	-25.8616	28.8738	1	4539
286	37	0	-25.0621	-29.2154	1	5799
287	37	0	-24.9974	-28.8505	1	7197
288	37	0	-24.4494	-27.3856	1	32757
289	37	0	-24.2647	-27.7345	1	2175
290	37	0	-25.2182	-26.1727	1	30231
291	37	0	-25.4824	-26.2452	1	31809
292	37	0	-24.6534	-24.9702	1	32727
293	37	0	-25.0051	-24.6785	1	4173
294	37	0	-24.1634	-25.0567	1	4335
295	37	0	-25.2545	-23.4645	1	9351
296	37	0	-24.4931	-23.553	1	13119
297	37	0	-25.375	-22.1183	1	31017
298	37	0	-24.0136	-21.0247	1	32511
299	37	0	-24.6495	-20.5959	1	29979
300	37	0	-24.3305	-20.3366	1	14601
301	37	0	-25.0798	-19.3771	1	25923
302	37	0	-25.4223	-18.1559	1	14589
303	37	0	-24.507	-19.358	1	5709
304	37	0	-25.4815	-16.5393	1	4557
305	37	0	-25.3718	-15.963	1	1641
306	37	0	-24.6072	-13.9738	1	26283
307	37	0	-25.1238	-14.7089	1	28941
308	37	0	-24.7676	-14.4544	1	4461
309	37	0	-24.6069	-12.5624	1	27993
310	37	0	-25.4334	-12.9359	1	12765
311	37	0	-24.4587	-10.8595	1	8751
312	37	0	-24.0951	-11.8374	1	10929
313	37	0	-24.343	-11.9636	1	12537
314	37	0	-24.0991	-11.3602	1	5283
315	37	0	-25.271	-10.7986	1	2511
316	37	0	-24.3179	-11.067	1	3219
317	37	0	-24.5167	-11.55	1	3477
318	37	0	-25.2333	-10.2015	1	30555
319	37	0	-24.7027	-9.89189	1	32589
320	37	0	-24.4943	-9.29131	1	9759
321	37	0	-24.9948	-10.0719	1	14073
322	37	0	-24.5171	-10.2898	1	15021
323	37	0	-25.4614	-9.9108	1	4593
324	37	0	-24.4355	-10.0065	1	1737
325	37	0	-25.1351	-8.75164	1	30255
326	37	0	-24.4135	-7.87648	1	30471
327	37	0	-24.0547	-6.18347	1	28221
328	37	0	-24.7771	-6.57773	1	31101
329	37	0	-24.2924	-6.36221	1	9225
330	37	0	-24.4421	-7.17008	1	14205
331	37	0	-25.1891	-5.24089	1	28773
332	37	0	-24.2784	-4.81001	1	9279
333	37	0	-24.3621	-5.60501	1	10995
334	37	0	-24.9538	-4.02469	1	9135
335	37	0	-24.5368	-3.97475	1	13113
336	37	0	-24.2543	-1.10695	1	26661
337	37	0	-24.1616	-1.48991	1	27843
338	37	0	-24.5277	-0.961637	1	9699
339	37	0	-24.2669	1.3631	1	31425
340	37	0	-24.7477	0.623416	1	4071
341	37	0	-25.2881	1.68984	1	10911
342	37	0	-24.699	3.77084	1	29361
343	37	0	-25.1659	3.39916	1	8679
344	37	0	-24.7516	3.22557	1	10545
345	37	0	-24.9995	4.46194	1	15363
346	37	0	-24.3039	3.97049	1	16299
347	37	0	-25.3056	5.70351	1	15189
348	37	0	-24.6147	4.80453	1	1431
349	37	0	-24.1623	5.90456	1	1533
350	37	0	-25.422	6.07881	1	8673
351	37	0	-24.3375	6.00524	1	6921
352	37	0	-24.0941	7.8033	1	8877
353	37	0	-25.2982	10.1906	1	25977
354	37	0	-24.0154	10.3811	1	12675
355	37	0	-24.061	10.4835	1	2343
356	37	0	-24.0271	11.3007	1	15573
357	37	0	-24.515	11.934	1	2781
358	37	0	-25.3358	13.3309	1	7773
359	37	0	-24.3822	12.1145	1	2661
360	37	0	-24.1217	14.6018	1	12321
361	37	0	-24.4795	14.6127	1	5907
362	37	0	-25.2356	13.9471	1	2211
363	37	0	-24.18	16.0459	1	10971
364	37	0	-24.4686	15.5076	1	14529
365	37	0	-25.4078	15.2183	1	1119
366	37	0	-24.2174	17.9424	1	15951
367	37	0	-24.3215	19.4015	1	30345
368	37	0	-24.4074	18.9408	1	5541
369	37	0	-24.7421	18.2177	1	3603
370	37	0	-24.0573	20.363	1	8829
371	37	0	-24.8719	20.9259	1	289
372	37	0	-24.09	22.4849	1	29631
373	37	0	-24.0487	21.2223	1	8919
374	37	0	-24.4264	22.0162	1	11025
375	37	0	-25.2286	21.3951	1	6333
376	37	0	-25.2239	23.1974	1	25407
377	37	0	-24.1813	22.6185	1	30867
378	37	0	-24.2159	23.3831	1	32631
379	37	0	-25.4355	22.5999	1	12141
380	37	0	-24.0434	23.9956	1	13671
381	37	0	-24.5204	23.2218	1	7491
382	37	0	-24.7095	24.3641	1	3183
383	37	0	-24.01	25.8435	1	26877
384	37	0	-25.0516	26.9621	1	28431
385	37	0	-25.1142	25.9122	1	6573
386	37	0	-24.2218	27.3194	1	13371
387	37	0	-25.2706	27.2421	1	5127
388	37	0	-24.3397	27.126	1	673
389	37	0	-24.1736	28.5397	1	10965
390	37	0	-24.2437	28.9366	1	14517
391	37	0	-24.3246	29.9497	1	4659
392	37	0	-25.2918	28.6675	1	547
393	37	0	-22.8272	-28.9884	1	28191
394	37	0	-23.9921	-29.5384	1	31545
395	37	0	-23.2686	-29.0253	1	11679
396	37	0	-23.499	-29.372	1	6993
397	37	0	-22.9504	-28.5173	1	1605
398	37	0	-23.9457	-27.351	1	31035
399	37	0	-23.6067	-28.3528	1	5223
400	37	0	-23.6248	-27.8257	1	2463
401	37	0	-23.5147	-26.6071	1	30189
402	37	0	-23.2816	-26.8367	1	30531
403	37	0	-23.5367	-24.0344	1	28887
404	37	0	-22.9531	-23.8036	1	9681
405	37	0	-23.1958	-21.7742	1	3393
406	37	0	-22.7048	-20.8855	1	9735
407	37	0	-23.0713	-20.0951	1	13011
408	37	0	-23.7967	-19.0358	1	30999
409	37	0	-23.0062	-19.2603	1	31743
410	37	0	-23.4296	-16.7142	1	3489
411	37	0	-23.3355	-15.8921	1	29427
412	37	0	-23.4392	-16.0244	1	32613
413	37	0	-23.5001	-14.6958	1	28881
414	37	0	-23.1259	-13.5958	1	187
415	37	0	-22.9798	-12.8462	1	29949
416	37	0	-22.9523	-11.4522	1	11985
417	37	0	-22.9375	-10.9918	1	5865
418	37	0	-23.4962	-10.3936	1	6465
419	37	0	-23.1734	-9.34856	1	1785
420	37	0	-23.3012	-8.76612	1	5757
421	37	0	-22.8521	-6.92356	1	29649
422	37	0	-22.8431	-5.42465	1	12351
423	37	0	-22.7217	-3.5122	1	6057
424	37	0	-22.8678	-3.81878	1	2631
425	37	0	-23.0043	-3.87895	1	1179
426	37	0	-23.8297	-2.29733	1	27135
427	37	0	-22.9412	-2.05785	1	32475
428	37	0	-23.9146	-1.86367	1	6627
429	37	0	-23.9146	-0.709327	1	2793
430	37	0	-22.69	0.69286	1	15597
431	37	0	-22.9836	2.65822	1	31821
432	37	0	-22.658	2.17015	1	16143
433	37	0	-23.1249	3.63717	1	27831
434	37	0	-23.6816	3.76977	1	14031
435	37	0	-23.384	3.04128	1	5367
436	37	0	-23.7697	3.94758	1	5445
437	37	0	-22.7516	3.55086	1	5673
438	37	0	-23.6814	4.74085	1	26193
439	37	0	-22.6793	4.65859	1	13809
440	37	0	-22.7137	6.15763	1	25743
441	37	0	-23.5788	6.99323	1	26697
442	37	0	-23.0872	6.13507	1	28869
443	37	0	-23.065	6.92438	1	32367
444	37	0	-23.9273	7.5926	1	29493
445	37	0	-22.6994	7.67636	1	8613
446	37	0	-23.2343	7.75158	1	10803
447	37	0	-22.7933	8.06869	1	6885
448	37	0	-23.6806	9.59852	1	26787
449	37	0	-22.8554	9.57702	1	4119
450	37	0	-23.963	10.7558	1	27801
451	37	0	-23.8694	11.6268	1	30099
452	37	0	-23.9952	11.7737	1	2889
453	37	0	-23.2033	12.2722	1	13803
454	37	0	-22.9245	14.8273	1	30945
455	37	0	-22.7989	14.3545	1	13359
456	37	0	-23.2569	14.0538	1	13989
457	37	0	-22.915	13.8523	1	14301
458	37	0	-22.9592	14.1896	1	4965
459	37	0	-23.5884	13.8765	1	7479
460	37	0	-23.639	15.2102	1	27657
461	37	0	-23.2958	15.0279	1	28245
462	37	0	-23.3416	16.348	1	30111
463	37	0	-23.5256	15.6161	1	13353
464	37	0	-23.3764	15.5623	1	5343
465	37	0	-22.7375	16.7416	1	29007
466	37	0	-23.6924	17.5282	1	29451
467	37	0	-23.0474	17.3911	1	30201
468	37	0	-22.7233	17.0496	1	2553
469	37	0	-23.5074	18.3535	1	29535
470	37	0	-22.9134	18.7219	1	29565
471	37	0	-22.9507	18.11	1	1251
472	37	0	-22.976	22.4923	1	11967
473	37	0	-23.3238	21.667	1	1563
474	37	0	-23.8485	23.7144	1	26145
475	37	0	-23.7721	22.6357	1	30057
476	37	0	-23.9349	23.9226	1	7485
477	37	0	-23.7471	24.6154	1	29775
478	37	0	-23.8248	24.0349	1	31539
479	37	0	-22.7902	26.2173	1	9573
480	37	0	-23.0701	26.9454	1	10389
481	37	0	-23.3263	27.2499	1	11859
482	37	0	-22.782	27.9575	1	16221
483	37	0	-23.1712	28.9155	1	10257
484	37	0	-22.2631	-29.4468	1	31305
485	37	0	-21.5834	-28.7947	1	8565
486	37	0	-21.1541	-29.8353	1	4395
487	37	0	-21.5804	-27.7439	1	30165
488	37	0	-21.5704	-25.884	1	14295
489	37	0	-22.1331	-25.9711	1	2097
490	37	0	-21.695	-23.6015	1	25515
491	37	0	-22.3154	-21.862	1	27963
492	37	0	-22.4357	-20.8508	1	29271
493	37	0	-21.9014	-20.6557	1	13383
494	37	0	-21.3492	-19.4189	1	25815
495	37	0	-21.1726	-19.4901	1	27243
496	37	0	-22.4837	-18.6035	1	28569
497	37	0	-21.7763	-18.1408	1	12585
498	37	0	-22.1015	-18.7443	1	3579
499	37	0	-21.6343	-17.8688	1	13347
500	37	0	-21.0851	-16.485	1	25281
501	37	0	-21.4054	-14.5888	1	27267
502	37	0	-21.4453	-13.4461	1	10197
503	37	0	-21.9944	-11.0506	1	10551
504	37	0	-21.8073	-10.2155	1	25857
505	37	0	-21.8955	-8.57093	1	28113
506	37	0	-22.308	-8.63418	1	28629
507	37	0	-21.4689	-6.91631	1	27123
508	37	0	-22.285	-6.571	1	9105
509	37	0	-21.7775	-6.22892	1	15279
510	37	0	-21.5996	-4.68001	1	1
511	37	0	-21.079	-3.73159	1	25659
512	37	0	-22.3465	-3.56556	1	8475
513	37	0	-21.8186	-4.13177	1	9237
514	37	0	-22.2029	-4.47411	1	1833
515	37	0	-21.0906	-2.54469	1	28809
516	37	0	-21.4136	-0.973245	1	31647
517	37	0	-21.5544	-0.993255	1	9741
518	37	0	-22.3813	-0.637914	1	11307
519	37	0	-21.4047	-1.1954	1	15639
520	37	0	-21.1747	-1.14475	1	7107
521	37	0	-21.2602	-0.343774	1	373
522	37	0	-22.1273	2.11726	1	14343
523	37	0	-22.3849	1.84433	1	3417
524	37	0	-22.0861	3.51016	1	29991
525	37	0	-21.6087	3.68257	1	30801
526	37	0	-21.4575	3.53169	1	4383
527	37	0	-22.3816	5.006	1	32685
528	37	0	-22.4847	5.1558	1	9789
529	37	0	-21.5132	5.81925	1	10047
530	37	0	-21.5927	5.61745	1	13629
531	37	0	-22.3704	5.22786	1	15543
532	37	0	-21.3029	5.65481	1	15711
533	37	0	-21.5604	4.51594	1	4077
534	37	0	-21.8416	6.08107	1	32349
535	37	0	-21.7206	6.49853	1	13269
536	37	0	-22.1709	6.64395	1	14229
537	37	0	-21.265	7.25751	1	2421
538	37	0	-21.6181	9.3744	1	26457
539	37	0	-21.7526	9.38228	1	26577
540	37	0	-22.1679	9.52255	1	28851
541	37	0	-21.6273	9.61544	1	7965
542	37	0	-21.923	10.5857	1	29385
543	37	0	-21.4587	10.544	1	9657
544	37	0	-21.5777	13.2992	1	13245
545	37	0	-21.5052	12.9033	1	1003
546	37	0	-21.5516	13.9665	1	25965
547	37	0	-21.5272	14.8326	1	26469
548	37	0	-21.2999	13.8121	1	31473
549	37	0	-22.0716	14.1919	1	10173
550	37	0	-22.1889	14.6184	1	4425
551	37	0	-21.2097	14.5587	1	3543
552	37	0	-21.8214	16.1548	1	26709
553	37	0	-22.4089	15.4598	1	28233
554	37	0	-22.0732	15.0638	1	8313
555	37	0	-21.287	15.5152	1	15591
556	37	0	-21.2363	17.6759	1	26043
557	37	0	-21.1105	17.7939	1	31935
558	37	0	-21.9985	16.9864	1	9459
559	37	0	-22.3723	16.9263	1	11301
560	37	0	-21.2642	20.4287	1	27027
561	37	0	-21.5473	19.5544	1	27999
562	37	0	-21.6439	20.5392	1	9537
563	37	0	-21.5639	20.4044	1	11901
564	37	0	-21.9677	22.3821	1	27195
565	37	0	-21.4202	21.8549	1	8655
566	37	0	-22.2226	21.1164	1	13131
567	37	0	-21.4017	23.0866	1	5643
568	37	0	-21.07	23.1261	1	6453
569	37	0	-21.5155	24.497	1	15129
570	37	0	-21.4326	25.4659	1	4521
571	37	0	-22.4669	24.8703	1	4731
572	37	0	-22.2658	24.8116	1	2739
573	37	0	-21.5934	26.6636	1	5595
574	37	0	-22.1358	28.0009	1	26475
575	37	0	-22.3519	28.3745	1	31713
576	37	0	-21.7555	28.4275	1	8925
577	37	0	-21.3984	29.9853	1	27453
578	37	0	-22.4711	29.9527	1	30831
579	37	0	-21.5278	29.3248	1	31119
580	37	0	-22.1984	29.9045	1	12267
581	37	0	-22.1933	29.5455	1	16209
582	37	0	-20.1912	-29.1322	1	29091
583	37	0	-20.6861	-28.2603	1	15525
584	37	0	-19.6894	-27.5066	1	4365
585	37	0	-20.5733	-26.8158	1	4275
586	37	0	-20.7836	-26.2704	1	3693
587	37	0	-20.6321	-25.2238	1	28065
588	37	0	-20.1075	-24.6819	1	10839
589	37	0	-20.1078	-24.7799	1	523
590	37	0	-20.1007	-22.7506	1	5823
591	37	0	-20.5758	-23.0753	1	5829
592	37	0	-20.769	-22.6971	1	7953
593	37	0	-20.7012	-23.1891	1	8085
594	37	0	-19.5457	-21.3967	1	26691
595	37	0	-20.2609	-21.0259	1	11181
596	37	0	-19.9026	-21.13	1	14853
597	37	0	-20.0833	-22.3934	1	397
598	37	0	-20.4947	-20.164	1	13755
599	37	0	-20.3927	-19.9807	1	15807
600	37	0	-20.4909	-20.6962	1	787
601	37	0	-20.4146	-18.5494	1	9993
602	37	0	-20.3892	-18.3184	1	13485
603	37	0	-20.7339	-18.9401	1	4209
604	37	0	-19.862	-16.8388	1	29553
605	37	0	-20.5931	-17.2682	1	10527
606	37	0	-19.6274	-17.1907	1	11805
607	37	0	-20.1425	-16.4797	1	25227
608	37	0	-20.39	-16.3061	1	9795
609	37	0	-20.5086	-16.1702	1	12477
610	37	0	-20.1389	-13.8406	1	15051
611	37	0	-20.591	-13.2353	1	25521
612	37	0	-20.1361	-12.1964	1	15909
613	37	0	-20.2665	-12.9305	1	6801
614	37	0	-20.7302	-13.4079	1	7899
615	37	0	-20.1855	-10.6024	1	391
616	37	0	-19.8268	-10.043	1	25629
617	37	0	-20.5713	-9.775	1	28731
618	37	0	-20.6174	-8.93162	1	30885
619	37	0	-19.8708	-8.07186	1	13173
620	37	0	-20.9496	-6.20065	1	29037
621	37	0	-20.6981	-6.68987	1	32097
622	37	0	-20.2902	-7.25336	1	8997
623	37	0	-20.2669	-6.92114	1	11409
624	37	0	-19.8702	-5.07652	1	31467
625	37	0	-20.1479	-5.88649	1	9879
626	37	0	-20.7472	-5.31727	1	5535
627	37	0	-20.3633	-5.36182	1	1029
628	37	0	-20.5933	-3.66786	1	11919
629	37	0	-19.7413	-4.03249	1	3537
630	37	0	-20.1662	-4.13449	1	1077
631	37	0	-19.9029	-2.4089	1	29571
632	37	0	-20.3576	-2.43346	1	11037
633	37	0	-19.8263	-2.36453	1	4857
634	37	0	-19.5218	-1.22398	1	26091
635	37	0	-20.1058	-0.214973	1	8049
636	37	0	-20.0117	0.471961	1	31641
637	37	0	-19.7652	0.771433	1	9855
638	37	0	-19.9169	0.99311	1	14025
639	37	0	-19.7086	1.41578	1	2469
640	37	0	-20.9283	2.90926	1	27171
641	37	0	-19.9061	1.66387	1	32325
642	37	0	-20.1976	1.84902	1	13593
643	37	0	-19.7073	2.78924	1	6267
644	37	0	-20.5055	4.07859	1	26733
645	37	0	-20.8274	4.43943	1	30141
646	37	0	-20.5396	3.6725	1	6657
647	37	0	-20.0071	3.25504	1	3135
648	37	0	-19.7915	5.66144	1	6783
649	37	0	-20.1309	6.81944	1	26649
650	37	0	-20.6899	6.15632	1	28803
651	37	0	-19.6248	7.18929	1	12129
652	37	0	-20.5627	7.50894	1	9177
653	37	0	-19.6731	8.39145	1	8109
654	37	0	-19.9893	8.39052	1	37
655	37	0	-20.6607	9.15079	1	28455
656	37	0	-19.8431	10.4974	1	5589
657	37	0	-19.8979	11.1698	1	28983
658	37	0	-20.7177	11.6221	1	13635
659	37	0	-20.3684	11.8979	1	15261
660	37	0	-19.9388	12.8367	1	32019
661	37	0	-20.5719	13.1991	1	1323
662	37	0	-19.6202	14.4096	1	8793
663	37	0	-19.7703	13.7992	1	15585
664	37	0	-19.5082	14.5797	1	16029
665	37	0	-20.6084	16.345	1	29973
666	37	0	-20.1708	16.0591	1	11541
667	37	0	-19.9092	16.4298	1	13587
668	37	0	-19.6144	16.9123	1	12171
669	37	0	-20.5194	16.7147	1	15105
670	37	0	-19.9989	17.4796	1	7989
671	37	0	-20.5712	18.0696	1	11823
672	37	0	-20.1881	19.3303	1	15903
673	37	0	-20.3894	19.395	1	4617
674	37	0	-19.8145	18.7767	1	6621
675	37	0	-20.7875	18.3078	1	8187
676	37	0	-20.1426	19.7657	1	25461
677	37	0	-20.6486	21.6211	1	31263
678	37	0	-20.0664	21.2736	1	2883
679	37	0	-20.2488	23.631	1	16227
680	37	0	-20.5933	23.1854	1	4851
681	37	0	-20.8776	23.4948	1	6135
682	37	0	-20.9612	25.2402	1	8805
683	37	0	-20.266	27.5594	1	28173
684	37	0	-20.8817	28.3144	1	14313
685	37	0	-20.1599	29.9039	1	9093
686	37	0	-20.5923	29.3966	1	11511
687	37	0	-20.3845	29.7894	1	4467
688	37	0	-20.1957	29.3124	1	13
689	37	0	-19.1555	-27.587	1	25719
690	37	0	-19.0173	-27.1056	1	27159
691	37	0	-18.5163	-27.4061	1	10215
692	37	0	-19.4125	-27.9731	1	7875
693	37	0	-19.278	-26.6019	1	4323
694	37	0	-18.2697	-24.3552	1	26391
695	37	0	-18.3739	-22.8146	1	25251
696	37	0	-18.1193	-22.9424	1	32289
697	37	0	-19.0972	-23.5074	1	15681
698	37	0	-18.6524	-21.0822	1	26361
699	37	0	-19.4601	-21.7506	1	10533
700	37	0	-18.8882	-22.4092	1	12699
701	37	0	-18.0701	-20.9107	1	28347
702	37	0	-18.1882	-19.8111	1	10311
703	37	0	-18.551	-19.5743	1	12873
704	37	0	-18.639	-16.6641	1	3009
705	37	0	-19.3667	-15.7341	1	4773
706	37	0	-18.5444	-15.7162	1	3567
707	37	0	-18.0084	-16.3834	1	3915
708	37	0	-19.1257	-13.5287	1	28185
709	37	0	-18.1453	-14.2445	1	12075
710	37	0	-19.3502	-14.2774	1	12291
711	37	0	-18.1284	-13.4445	1	27201
712	37	0	-18.3806	-12.5301	1	31833
713	37	0	-18.5157	-12.7978	1	14523
714	37	0	-19.323	-12.8272	1	14781
715	37	0	-19.3313	-11.5422	1	29265
716	37	0	-18.2199	-11.8262	1	8685
717	37	0	-18.3486	-9.17147	1	25803
718	37	0	-18.1599	-8.4662	1	11007
719	37	0	-18.9211	-7.02414	1	13077
720	37	0	-18.0231	-6.83416	1	4935
721	37	0	-18.7414	-7.43413	1	5679
722	37	0	-18.5035	-7.00349	1	5817
723	37	0	-18.1898	-6.95139	1	6327
724	37	0	-18.3011	-5.02929	1	26085
725	37	0	-18.942	-4.73665	1	10845
726	37	0	-19.0042	-4.72419	1	15087
727	37	0	-18.5574	-2.99205	1	30759
728	37	0	-18.5807	-2.64678	1	1041
729	37	0	-18.8414	-0.270386	1	25311
730	37	0	-18.9788	-1.09723	1	26247
731	37	0	-18.3691	-0.147999	1	26355
732	37	0	-19.1692	-0.984937	1	13731
733	37	0	-19.3686	0.972296	1	32361
734	37	0	-18.0156	1.49561	1	8781
735	37	0	-18.7638	0.233197	1	9513
736	37	0	-19.1023	1.35145	1	6021
737	37	0	-18.5501	2.28714	1	29133
738	37	0	-19.1721	4.66546	1	4665
739	37	0	-18.7605	6.81942	1	31125
740	37	0	-18.212	6.76627	1	5355
741	37	0	-19.1457	8.22069	1	28839
742	37	0	-18.2628	8.45677	1	15519
743	37	0	-18.9314	8.04106	1	16041
744	37	0	-19.3039	7.76393	1	3873
745	37	0	-18.1688	9.26901	1	13101
746	37	0	-19.3659	9.40968	1	631
747	37	0	-18.7807	11.5511	1	12891
748	37	0	-19.0404	11.9411	1	1227
749	37	0	-18.9176	12.7466	1	28323
750	37	0	-18.9816	13.5171	1	31917
751	37	0	-19.4064	14.1412	1	12081
752	37	0	-18.8431	14.4461	1	7617
753	37	0	-19.019	16.1341	1	12501
754	37	0	-18.5268	17.322	1	30117
755	37	0	-19.1389	16.511	1	10131
756	37	0	-19.027	17.2669	1	2535
757	37	0	-19.4501	18.4578	1	11937
758	37	0	-18.861	19.2865	1	7659
759	37	0	-18.8323	18.9394	1	2805
760	37	0	-18.3691	20.7379	1	32031
761	37	0	-18.8932	20.2856	1	32337
762	37	0	-18.2543	19.7878	1	12801
763	37	0	-18.9704	22.2694	1	11247
764	37	0	-19.4633	22.3601	1	13239
765	37	0	-19.0145	24.5057	1	31689
766	37	0	-19.241	24.3527	1	12225
767	37	0	-18.2647	24.4618	1	4923
768	37	0	-19.1987	24.8033	1	2019
769	37	0	-19.252	26.3187	1	27513
770	37	0	-19.0685	25.717	1	30681
771	37	0	-18.1073	26.5224	1	11535
772	37	0	-19.1575	27.8596	1	28683
773	37	0	-19.4646	27.1242	1	28845
774	37	0	-19.4164	28.6459	1	28899
775	37	0	-18.921	29.6101	1	12927
776	37	0	-19.2072	29.8432	1	13791
777	37	0	-18.3504	29.1572	1	5097
778	37	0	-17.0692	-28.894	1	29919
779	37	0	-17.8481	-29.2921	1	10185
780	37	0	-17.0034	-27.3127	1	29439
781	37	0	-17.2907	-27.6862	1	31773
782	37	0	-17.9657	-28.4245	1	3321
783	37	0	-17.5679	-24.6208	1	10707
784	37	0	-17.9252	-24.1912	1	3645
785	37	0	-16.735	-23.5931	1	12507
786	37	0	-17.6104	-23.6607	1	3927
787	37	0	-17.5332	-22.2091	1	9183
788	37	0	-17.628	-21.746	1	4527
789	37	0	-17.5584	-21.4148	1	3759
790	37	0	-17.8218	-19.9685	1	28317
791	37	0	-17.3319	-20.2326	1	3849
792	37	0	-17.8549	-18.8927	1	26565
793	37	0	-16.5382	-18.2421	1	28209
794	37	0	-17.7282	-19.2361	1	13833
795	37	0	-17.0346	-16.5647	1	28539
796	37	0	-17.5911	-17.7797	1	9933
797	37	0	-17.9698	-17.6829	1	145
798	37	0	-17.4304	-15.0992	1	30645
799	37	0	-16.7669	-15.285	1	4959
800	37	0	-17.8606	-16.0434	1	151
801	37	0	-16.7715	-14.1574	1	32073
802	37	0	-17.7542	-13.7107	1	10959
803	37	0	-17.302	-14.6127	1	3885
804	37	0	-17.8916	-12.0229	1	29193
805	37	0	-17.6781	-13.1702	1	15009
806	37	0	-17.425	-10.0687	1	12051
807	37	0	-17.388	-7.74774	1	13341
808	37	0	-16.593	-6.11873	1	9381
809	37	0	-17.2812	-6.32476	1	13767
810	37	0	-17.1015	-6.83981	1	15939
811	37	0	-17.8078	-6.6838	1	1113
812	37	0	-17.6893	-5.76107	1	27663
813	37	0	-17.2707	-4.94971	1	29055
814	37	0	-17.5085	-5.0137	1	32151
815	37	0	-16.8147	-5.66457	1	10473
816	37	0	-16.6281	-4.92257	1	3981
817	37	0	-17.9844	-1.63348	1	25503
818	37	0	-16.5491	-2.07774	1	11907
819	37	0	-17.9605	-2.45108	1	1395
820	37	0	-16.6619	-0.19243	1	28155
821	37	0	-17.9374	-0.444423	1	10155
822	37	0	-17.7039	-1.09772	1	10449
823	37	0	-17.3603	-1.3067	1	7803
824	37	0	-16.816	0.152895	1	11403
825	37	0	-16.84	1.41489	1	5409
826	37	0	-16.8609	1.52087	1	8835
827	37	0	-16.9143	2.21013	1	7431
828	37	0	-17.3413	3.02927	1	25263
829	37	0	-17.1272	3.17638	1	16023
830	37	0	-17.892	4.15953	1	5469
831	37	0	-17.1076	5.64721	1	25563
832	37	0	-17.6693	5.54031	1	8517
833	37	0	-16.808	6.40614	1	26739
834	37	0	-16.7004	6.65914	1	4287
835	37	0	-17.5909	7.7851	1	26901
836	37	0	-17.9021	7.96808	1	27309
837	37	0	-17.5488	8.87213	1	5241
838	37	0	-17.3869	8.1806	1	217
839	37	0	-17.927	10.3202	1	2823
840	37	0	-16.6857	10.8309	1	29835
841	37	0	-16.9573	11.9318	1	30483
842	37	0	-17.5723	11.2057	1	9075
843	37	0	-16.5989	10.5499	1	9339
844	37	0	-16.9988	11.0881	1	7647
845	37	0	-16.9518	11.513	1	2997
846	37	0	-16.8189	12.9286	1	12909
847	37	0	-17.1956	13.764	1	29847
848	37	0	-17.7991	15.6792	1	25179
849	37	0	-17.6799	15.7775	1	10233
850	37	0	-17.4281	15.2785	1	4689
851	37	0	-17.1379	16.4635	1	6105
852	37	0	-17.4593	17.0894	1	32061
853	37	0	-17.224	16.5734	1	32541
854	37	0	-16.8225	17.5241	1	2517
855	37	0	-17.0058	18.868	1	30507
856	37	0	-17.149	18.4932	1	12387
857	37	0	-17.127	19.1753	1	3231
858	37	0	-16.8516	18.7482	1	1851
859	37	0	-17.5975	20.6825	1	6495
860	37	0	-17.7242	21.5049	1	4881
861	37	0	-17.8283	22.7853	1	9255
862	37	0	-17.4511	23.076	1	5019
863	37	0	-17.0657	23.4019	1	619
864	37	0	-17.1186	24.0567	1	7833
865	37	0	-17.3733	25.2361	1	3777
866	37	0	-16.6795	28.3123	1	1245
867	37	0	-17.9887	29.8356	1	26745
868	37	0	-17.9281	29.4429	1	28263
869	37	0	-15.3199	-27.2134	1	29541
870	37	0	-15.4454	-27.9432	1	13281
871	37	0	-15.9469	-26.4864	1	25713
872	37	0	-16.3794	-26.5937	1	4905
873	37	0	-15.4516	-25.3922	1	1107
874	37	0	-15.1188	-22.8412	1	27381
875	37	0	-15.5823	-21.5162	1	31341
876	37	0	-15.2627	-21.449	1	9249
877	37	0	-16.3042	-21.9395	1	1317
878	37	0	-15.7463	-21.9171	1	1953
879	37	0	-15.314	-20.9862	1	25425
880	37	0	-15.8533	-20.6277	1	15063
881	37	0	-15.7878	-18.3675	1	30063
882	37	0	-15.2257	-18.5286	1	4005
883	37	0	-15.708	-17.3255	1	14643
884	37	0	-16.3325	-17.744	1	15177
885	37	0	-15.3733	-15.3137	1	28653